LAMMPS data file. CGCMM style. atom_style full generated by VMD/TopoTools v1.5 on Wed Nov 30 12:14:08 GMT 2016
 96 atoms
 64 bonds
 32 angles
 0 dihedrals
 0 impropers
 2 atom types
 1 bond types
 1 angle types
 0 dihedral types
 0 improper types
 0.0 18.63  xlo xhi
 0.0 18.63  ylo yhi
 0.0 18.63  zlo zhi

 Masses

  1 15.994914
  2  1.007825

 Bond Coeffs

  1    1.780    0.2708585 -0.327738785 0.231328959

 Angle Coeffs

  1    0.0700  107.400000

 Atoms

1 1 1 -1.1128 6.713141 5.451649 7.473339
2 1 2  0.5564 7.656255 5.580664 7.447322
3 1 2  0.5564 6.441476 5.089402 8.332540
4 2 1 -1.1128 1.972302 4.748616 2.883340
5 2 2  0.5564 1.330198 5.082429 3.502255
6 2 2  0.5564 2.609174 5.441890 2.644560
7 3 1 -1.1128 6.399450 7.165426 8.799382
8 3 2  0.5564 6.374130 6.668598 7.987405
9 3 2  0.5564 5.503672 7.283844 9.155484
10 4 1 -1.1128 9.041675 4.023467 7.978142
11 4 2  0.5564 8.886019 3.440563 7.241406
12 4 2  0.5564 9.652498 3.615423 8.613474
13 5 1 -1.1128 0.369694 1.835562 8.030454
14 5 2  0.5564 0.918846 2.392522 7.487304
15 5 2  0.5564 0.837250 1.583390 8.843505
16 6 1 -1.1128 6.461851 9.371747 5.225274
17 6 2  0.5564 7.227037 9.616929 5.736313
18 6 2  0.5564 6.715610 8.797442 4.484307
19 7 1 -1.1128 6.588022 6.493873 5.647567
20 7 2  0.5564 6.117475 5.877446 5.094949
21 7 2  0.5564 6.471950 7.401659 5.322448
22 8 1 -1.1128 7.855555 8.682768 6.616726
23 8 2  0.5564 8.375269 9.223377 6.029848
24 8 2  0.5564 7.374442 8.002232 6.118077
25 9 1 -1.1128 8.217274 2.372869 3.419020
26 9 2  0.5564 7.436089 2.154894 2.919998
27 9 2  0.5564 8.523992 1.603806 3.926678
28 10 1 -1.1128 3.778351 4.561316 8.119344
29 10 2  0.5564 4.021221 5.333138 7.617258
30 10 2  0.5564 3.153215 4.011323 7.619381
31 11 1 -1.1128 4.534048 1.855414 0.914595
32 11 2  0.5564 4.548104 0.904238 0.957617
33 11 2  0.5564 4.886593 2.164144 0.063919
34 12 1 -1.1128 9.683127 8.228283 6.291258
35 12 2  0.5564 8.792931 7.917363 6.424168
36 12 2  0.5564 9.721773 9.195841 6.366020
37 13 1 -1.1128 2.524054 7.404021 2.469667
38 13 2  0.5564 2.072937 7.961075 3.096540
39 13 2  0.5564 3.306063 6.995960 2.876113
40 14 1 -1.1128 7.001152 1.884608 0.366715
41 14 2  0.5564 7.303161 1.022882 0.636907
42 14 2  0.5564 6.112073 1.829187 -0.020219
43 15 1 -1.1128 3.372691 0.517700 4.327648
44 15 2  0.5564 3.338208 1.410599 3.998517
45 15 2  0.5564 4.139975 0.048086 3.961604
46 16 1 -1.1128 8.761615 7.532465 5.028506
47 16 2  0.5564 9.431178 6.924293 4.730853
48 16 2  0.5564 8.178063 7.107049 5.677920
49 17 1 -1.1128 3.640194 2.153744 7.382401
50 17 2  0.5564 3.668453 2.242368 6.434703
51 17 2  0.5564 3.809991 3.008733 7.810670
52 18 1 -1.1128 4.957970 7.477341 6.538049
53 18 2  0.5564 5.580810 6.854968 6.175411
54 18 2  0.5564 4.366302 7.038940 7.171281
55 19 1 -1.1128 8.311979 3.106498 2.134251
56 19 2  0.5564 7.665245 3.565324 1.606994
57 19 2  0.5564 9.208978 3.402907 1.908894
58 20 1 -1.1128 9.066517 0.947021 8.254058
59 20 2  0.5564 9.313220 1.846320 8.446890
60 20 2  0.5564 8.602660 0.895171 7.402355
61 21 1 -1.1128 2.507556 6.420167 8.944535
62 21 2  0.5564 3.197782 7.038955 8.726648
63 21 2  0.5564 2.850284 5.713222 9.515514
64 22 1 -1.1128 4.799438 8.534488 8.030163
65 22 2  0.5564 4.313017 7.760557 8.297017
66 22 2  0.5564 4.816157 8.610502 7.062076
67 23 1 -1.1128 9.260825 6.980329 3.495759
68 23 2  0.5564 9.891301 7.692291 3.544691
69 23 2  0.5564 9.022709 6.797770 2.572057
70 24 1 -1.1128 7.574048 8.290039 2.880373
71 24 2  0.5564 6.768744 8.724277 3.144395
72 24 2  0.5564 8.315010 8.574808 3.439955
73 25 1 -1.1128 5.404429 7.301475 7.762381
74 25 2  0.5564 5.787351 8.025338 8.248362
75 25 2  0.5564 4.908891 6.714948 8.357091
76 26 1 -1.1128 2.542694 5.739445 0.523119
77 26 2  0.5564 2.061276 6.459255 0.127018
78 26 2  0.5564 2.732004 5.927958 1.456861
79 27 1 -1.1128 8.528205 4.652700 3.962311
80 27 2  0.5564 8.151636 4.422310 3.118569
81 27 2  0.5564 9.353974 5.149941 3.843533
82 28 1 -1.1128 5.437719 5.115045 2.077296
83 28 2  0.5564 5.232685 4.249191 2.416476
84 28 2  0.5564 5.707115 5.062018 1.145704
85 29 1 -1.1128 5.623675 1.836537 5.538555
86 29 2  0.5564 5.245208 2.487291 6.121708
87 29 2  0.5564 5.959449 1.078557 6.044492
88 30 1 -1.1128 3.203328 6.738295 5.964566
89 30 2  0.5564 4.148929 6.689579 6.065807
90 30 2  0.5564 2.846945 7.501844 6.447510
91 31 1 -1.1128 4.019230 5.545185 3.045820
92 31 2  0.5564 3.264258 5.902277 3.503299
93 31 2  0.5564 3.742740 5.090492 2.233380
94 32 1 -1.1128 4.798447 4.166677 0.133712
95 32 2  0.5564 4.443596 3.284284 0.181123
96 32 2  0.5564 4.545015 4.679424 0.918640

 Bonds

1 1 1 2
2 1 1 3
3 1 4 5
4 1 4 6
5 1 7 8
6 1 7 9
7 1 10 11
8 1 10 12
9 1 13 14
10 1 13 15
11 1 16 17
12 1 16 18
13 1 19 20
14 1 19 21
15 1 22 23
16 1 22 24
17 1 25 26
18 1 25 27
19 1 28 29
20 1 28 30
21 1 31 32
22 1 31 33
23 1 34 35
24 1 34 36
25 1 37 38
26 1 37 39
27 1 40 41
28 1 40 42
29 1 43 44
30 1 43 45
31 1 46 47
32 1 46 48
33 1 49 50
34 1 49 51
35 1 52 53
36 1 52 54
37 1 55 56
38 1 55 57
39 1 58 59
40 1 58 60
41 1 61 62
42 1 61 63
43 1 64 65
44 1 64 66
45 1 67 68
46 1 67 69
47 1 70 71
48 1 70 72
49 1 73 74
50 1 73 75
51 1 76 77
52 1 76 78
53 1 79 80
54 1 79 81
55 1 82 83
56 1 82 84
57 1 85 86
58 1 85 87
59 1 88 89
60 1 88 90
61 1 91 92
62 1 91 93
63 1 94 95
64 1 94 96

 Angles

1 1 2 1 3
2 1 5 4 6
3 1 8 7 9
4 1 11 10 12
5 1 14 13 15
6 1 17 16 18
7 1 20 19 21
8 1 23 22 24
9 1 26 25 27
10 1 29 28 30
11 1 32 31 33
12 1 35 34 36
13 1 38 37 39
14 1 41 40 42
15 1 44 43 45
16 1 47 46 48
17 1 50 49 51
18 1 53 52 54
19 1 56 55 57
20 1 59 58 60
21 1 62 61 63
22 1 65 64 66
23 1 68 67 69
24 1 71 70 72
25 1 74 73 75
26 1 77 76 78
27 1 80 79 81
28 1 83 82 84
29 1 86 85 87
30 1 89 88 90
31 1 92 91 93
32 1 95 94 96

