LAMMPS data file. CGCMM style. atom_style full generated by VMD/TopoTools v1.5 on Wed Nov 30 12:14:08 GMT 2016
 384 atoms
 256 bonds
 128 angles
 0 dihedrals
 0 impropers
 2 atom types
 1 bond types
 1 angle types
 0 dihedral types
 0 improper types
 0.0 29.57  xlo xhi
 0.0 29.57  ylo yhi
 0.0 29.57  zlo zhi

 Masses

  1 15.994914
  2  1.007825

 Bond Coeffs

  1    1.780    0.2708585 -0.327738785 0.231328959

 Angle Coeffs

  1    0.0700  107.400000

 Atoms

1 1 1 -1.1128 2.494219 3.785659 11.760903
2 1 2  0.5564 1.844191 4.431209 11.501069
3 1 2  0.5564 3.363385 4.203381 11.876278
4 2 1 -1.1128 12.822248 10.604520 11.814335
5 2 2  0.5564 11.943840 10.598006 12.181950
6 2 2  0.5564 13.476542 10.826749 12.496804
7 3 1 -1.1128 1.176715 5.579530 11.297448
8 3 2  0.5564 0.608632 4.930348 11.700722
9 3 2  0.5564 1.169187 6.405026 11.809064
10 4 1 -1.1128 9.725130 5.801843 3.478603
11 4 2  0.5564 10.103384 6.258704 4.223578
12 4 2  0.5564 10.398220 5.645313 2.796182
13 5 1 -1.1128 2.771653 4.813215 4.756518
14 5 2  0.5564 2.534983 5.704819 4.992771
15 5 2  0.5564 2.144254 4.453616 4.108205
16 6 1 -1.1128 14.904191 12.213996 6.169599
17 6 2  0.5564 14.005661 12.517003 6.082327
18 6 2  0.5564 15.058282 11.435936 5.609126
19 7 1 -1.1128 6.060688 9.007687 13.883345
20 7 2  0.5564 5.342103 9.481433 14.290756
21 7 2  0.5564 6.731263 8.769710 14.544365
22 8 1 -1.1128 4.828634 14.014796 9.336113
23 8 2  0.5564 4.171940 13.498798 8.878636
24 8 2  0.5564 4.561138 14.947448 9.379209
25 9 1 -1.1128 13.837360 14.422270 8.027070
26 9 2  0.5564 13.145802 13.796695 8.219915
27 9 2  0.5564 14.477513 14.042309 7.403303
28 10 1 -1.1128 12.130194 6.718307 14.164015
29 10 2  0.5564 13.012218 6.407487 13.984546
30 10 2  0.5564 11.741396 7.120119 13.369890
31 11 1 -1.1128 9.540125 3.234134 3.415108
32 11 2  0.5564 8.694474 3.034660 3.804812
33 11 2  0.5564 9.433091 3.820247 2.648122
34 12 1 -1.1128 8.354649 12.550293 8.249668
35 12 2  0.5564 8.608788 13.436073 8.489648
36 12 2  0.5564 8.789588 12.282014 7.423771
37 13 1 -1.1128 7.505787 10.000717 8.426976
38 13 2  0.5564 7.116055 9.273688 7.951242
39 13 2  0.5564 7.491614 10.808479 7.887930
40 14 1 -1.1128 14.172663 0.410294 3.308482
41 14 2  0.5564 15.005567 0.034458 3.040521
42 14 2  0.5564 13.878163 0.023670 4.149340
43 15 1 -1.1128 5.415230 9.713591 6.696024
44 15 2  0.5564 4.702459 9.807804 6.071631
45 15 2  0.5564 5.893616 10.552696 6.797521
46 16 1 -1.1128 6.231733 4.522768 7.685052
47 16 2  0.5564 6.978792 4.637458 8.264305
48 16 2  0.5564 5.436150 4.925631 8.069760
49 17 1 -1.1128 2.039449 11.641716 6.439047
50 17 2  0.5564 2.472485 10.843034 6.153788
51 17 2  0.5564 2.630209 12.405797 6.336900
52 18 1 -1.1128 1.330562 14.709264 7.935329
53 18 2  0.5564 2.149229 14.227520 8.002352
54 18 2  0.5564 1.316395 15.248036 7.127384
55 19 1 -1.1128 12.243021 12.936711 3.852777
56 19 2  0.5564 12.086207 12.073926 3.481566
57 19 2  0.5564 11.407645 13.344680 4.133772
58 20 1 -1.1128 8.709251 15.451938 10.895446
59 20 2  0.5564 7.828948 15.597128 10.562620
60 20 2  0.5564 8.806259 14.541371 11.219032
61 21 1 -1.1128 10.389629 14.666783 6.071164
62 21 2  0.5564 10.500949 15.603182 6.203640
63 21 2  0.5564 10.843347 14.166692 6.769233
64 22 1 -1.1128 10.859941 6.122415 15.518604
65 22 2  0.5564 10.613010 5.784061 14.663428
66 22 2  0.5564 11.826307 6.136160 15.614518
67 23 1 -1.1128 10.781468 15.376416 1.236338
68 23 2  0.5564 11.527975 15.042842 0.748239
69 23 2  0.5564 10.399297 14.679563 1.794542
70 24 1 -1.1128 0.703086 12.907292 7.375307
71 24 2  0.5564 0.047056 12.280413 7.086460
72 24 2  0.5564 0.687852 12.996601 8.342283
73 25 1 -1.1128 12.761306 10.356058 14.215942
74 25 2  0.5564 13.509826 10.619724 13.689651
75 25 2  0.5564 12.992100 10.350118 15.159313
76 26 1 -1.1128 14.439555 13.517504 2.258476
77 26 2  0.5564 14.916933 14.338379 2.329614
78 26 2  0.5564 14.974376 12.780862 2.596967
79 27 1 -1.1128 13.903709 13.717672 10.814098
80 27 2  0.5564 13.729011 14.588045 10.469545
81 27 2  0.5564 13.092592 13.324089 11.175251
82 28 1 -1.1128 1.248958 4.765655 4.815972
83 28 2  0.5564 1.184816 5.612859 4.385954
84 28 2  0.5564 0.603885 4.699848 5.539021
85 29 1 -1.1128 6.177596 10.429131 10.425741
86 29 2  0.5564 6.057085 11.143888 9.808177
87 29 2  0.5564 5.325424 10.157166 10.804012
88 30 1 -1.1128 6.429215 11.436611 11.874220
89 30 2  0.5564 6.408393 12.184100 12.463806
90 30 2  0.5564 5.919618 10.696525 12.242778
91 31 1 -1.1128 9.922888 13.139138 2.857404
92 31 2  0.5564 10.298721 12.326721 3.182233
93 31 2  0.5564 9.260044 13.481530 3.479221
94 32 1 -1.1128 1.498838 4.416219 2.542268
95 32 2  0.5564 2.450551 4.386838 2.529446
96 32 2  0.5564 1.153586 3.961619 3.328010
97 33 1 -1.1128 15.425191 1.550829 2.428419
98 33 2  0.5564 14.733345 1.252889 1.845868
99 33 2  0.5564 15.636307 0.867560 3.085552
100 34 1 -1.1128 10.735954 8.142888 15.022219
101 34 2  0.5564 9.883531 7.769579 15.224208
102 34 2  0.5564 11.284316 7.501783 14.541039
103 35 1 -1.1128 8.212450 5.719859 14.157160
104 35 2  0.5564 7.506299 6.324269 13.950216
105 35 2  0.5564 8.520190 5.853265 15.068615
106 36 1 -1.1128 5.005945 3.904259 6.593855
107 36 2  0.5564 4.553551 4.737685 6.507102
108 36 2  0.5564 4.419239 3.169999 6.349134
109 37 1 -1.1128 11.272527 8.784123 13.945610
110 37 2  0.5564 11.914551 8.439107 13.332786
111 37 2  0.5564 11.688309 8.981681 14.800799
112 38 1 -1.1128 14.679783 3.377358 4.166078
113 38 2  0.5564 13.884136 3.147863 3.695905
114 38 2  0.5564 15.434138 3.428386 3.556492
115 39 1 -1.1128 13.993845 9.937446 2.345065
116 39 2  0.5564 13.414286 9.223281 2.098355
117 39 2  0.5564 14.125909 9.953423 3.307123
118 40 1 -1.1128 13.712180 2.266764 12.126559
119 40 2  0.5564 14.467774 1.696431 12.023682
120 40 2  0.5564 13.141945 1.951738 12.846865
121 41 1 -1.1128 14.571612 11.138182 7.177319
122 41 2  0.5564 14.391343 10.490897 6.502552
123 41 2  0.5564 13.791754 11.695735 7.332909
124 42 1 -1.1128 13.464078 9.070079 13.199104
125 42 2  0.5564 12.554251 9.276926 13.008804
126 42 2  0.5564 13.785488 8.368569 12.609332
127 43 1 -1.1128 14.988942 15.319268 9.981301
128 43 2  0.5564 14.146178 15.104194 9.593643
129 43 2  0.5564 15.607750 15.632439 9.301410
130 44 1 -1.1128 2.919266 13.238450 3.348529
131 44 2  0.5564 3.623916 12.902073 2.803456
132 44 2  0.5564 2.798946 12.680340 4.134205
133 45 1 -1.1128 0.817665 10.242647 14.414826
134 45 2  0.5564 0.024325 9.814939 14.722175
135 45 2  0.5564 1.101447 9.866548 13.565551
136 46 1 -1.1128 3.591437 8.192308 6.822778
137 46 2  0.5564 4.412687 8.672134 6.868609
138 46 2  0.5564 3.453995 7.672351 7.631485
139 47 1 -1.1128 11.852964 5.197039 4.058349
140 47 2  0.5564 11.701864 5.396528 3.139568
141 47 2  0.5564 12.683515 4.705970 4.169193
142 48 1 -1.1128 7.420211 7.295428 11.033442
143 48 2  0.5564 7.927642 7.631566 11.765773
144 48 2  0.5564 6.935789 8.014042 10.595058
145 49 1 -1.1128 9.328875 5.466316 1.291700
146 49 2  0.5564 8.443686 5.465027 1.642731
147 49 2  0.5564 9.856090 6.174109 1.697071
148 50 1 -1.1128 9.222212 12.451855 0.771379
149 50 2  0.5564 9.505840 13.064359 0.099680
150 50 2  0.5564 8.261387 12.317254 0.727221
151 51 1 -1.1128 15.071098 5.379750 8.546465
152 51 2  0.5564 15.227802 4.506849 8.893270
153 51 2  0.5564 14.211747 5.717701 8.847389
154 52 1 -1.1128 7.149974 11.057687 0.606315
155 52 2  0.5564 6.925390 11.713404 1.259295
156 52 2  0.5564 7.234784 10.181673 1.016994
157 53 1 -1.1128 2.974224 15.138857 4.728066
158 53 2  0.5564 3.323039 14.258957 4.832413
159 53 2  0.5564 2.031295 15.107417 4.497528
160 54 1 -1.1128 1.984746 10.070320 2.007862
161 54 2  0.5564 2.843242 9.733519 2.245211
162 54 2  0.5564 2.035935 10.589227 1.188493
163 55 1 -1.1128 13.245508 11.306990 10.433367
164 55 2  0.5564 12.683477 10.539294 10.472713
165 55 2  0.5564 13.741942 11.409743 11.261768
166 56 1 -1.1128 11.520719 14.419475 3.167552
167 56 2  0.5564 12.324549 13.931194 3.316626
168 56 2  0.5564 11.591350 14.955679 2.360862
169 57 1 -1.1128 4.037586 1.519514 5.024731
170 57 2  0.5564 3.183753 1.939998 5.055498
171 57 2  0.5564 4.334497 1.416024 4.105827
172 58 1 -1.1128 5.085729 10.164400 3.586749
173 58 2  0.5564 4.544159 10.943463 3.667672
174 58 2  0.5564 4.544176 9.362124 3.666273
175 59 1 -1.1128 3.367705 6.293462 10.642521
176 59 2  0.5564 4.316502 6.353448 10.588005
177 59 2  0.5564 3.094256 5.999319 11.526804
178 60 1 -1.1128 1.963113 2.719788 2.606636
179 60 2  0.5564 1.129246 2.576399 3.043546
180 60 2  0.5564 2.138760 2.012118 1.965073
181 61 1 -1.1128 5.770663 6.328629 5.120876
182 61 2  0.5564 6.144779 5.511003 4.807331
183 61 2  0.5564 5.944529 7.047456 4.491344
184 62 1 -1.1128 14.104595 15.172538 1.174439
185 62 2  0.5564 13.265911 15.269296 1.614929
186 62 2  0.5564 14.003888 14.657226 0.357394
187 63 1 -1.1128 3.644544 13.716116 10.531449
188 63 2  0.5564 3.303879 14.525229 10.162574
189 63 2  0.5564 3.226951 13.528776 11.388053
190 64 1 -1.1128 7.543864 4.366035 4.016808
191 64 2  0.5564 8.155724 4.273935 3.292978
192 64 2  0.5564 7.273198 3.494217 4.348357
193 65 1 -1.1128 14.966031 1.609798 5.126953
194 65 2  0.5564 14.861145 0.678918 4.955939
195 65 2  0.5564 14.972229 2.111340 4.295287
196 66 1 -1.1128 2.272573 3.644488 5.111883
197 66 2  0.5564 2.947197 3.612057 4.440604
198 66 2  0.5564 2.666647 3.567716 5.996226
199 67 1 -1.1128 0.804410 11.946695 10.512396
200 67 2  0.5564 1.177755 11.892819 11.386751
201 67 2  0.5564 1.492062 11.817741 9.838781
202 68 1 -1.1128 6.987428 8.076716 2.982901
203 68 2  0.5564 6.657009 7.193910 2.847765
204 68 2  0.5564 7.541020 8.352619 2.234126
205 69 1 -1.1128 6.496972 5.481951 6.795009
206 69 2  0.5564 5.792648 5.167746 6.236450
207 69 2  0.5564 7.232877 5.820328 6.259101
208 70 1 -1.1128 7.683301 1.334251 4.814676
209 70 2  0.5564 7.686394 1.980208 5.514330
210 70 2  0.5564 7.283079 1.703580 4.010518
211 71 1 -1.1128 10.034907 5.051284 10.676659
212 71 2  0.5564 10.900509 5.444748 10.728660
213 71 2  0.5564 9.696232 5.089786 9.767227
214 72 1 -1.1128 8.335066 3.292101 15.400511
215 72 2  0.5564 7.785567 3.674887 14.723525
216 72 2  0.5564 8.012617 2.408729 15.643267
217 73 1 -1.1128 9.501146 6.642993 14.498324
218 73 2  0.5564 8.610259 6.974344 14.555866
219 73 2  0.5564 9.504403 5.671844 14.487804
220 74 1 -1.1128 1.277307 7.859455 11.649719
221 74 2  0.5564 0.839738 8.705211 11.653692
222 74 2  0.5564 1.874244 7.780087 12.411702
223 75 1 -1.1128 11.620503 3.163477 2.718549
224 75 2  0.5564 12.386526 2.600627 2.662034
225 75 2  0.5564 11.180514 3.056347 3.577725
226 76 1 -1.1128 14.136528 10.462283 10.301959
227 76 2  0.5564 14.188186 9.835688 9.586770
228 76 2  0.5564 14.257750 11.367742 9.972264
229 77 1 -1.1128 4.973940 5.609781 1.895712
230 77 2  0.5564 4.155278 5.140309 2.022887
231 77 2  0.5564 5.199332 5.654022 0.952053
232 78 1 -1.1128 8.162438 7.486151 9.193108
233 78 2  0.5564 7.416677 7.674671 8.631783
234 78 2  0.5564 8.925697 7.202983 8.663483
235 79 1 -1.1128 0.879323 11.678922 4.561911
236 79 2  0.5564 0.694352 11.253469 3.730310
237 79 2  0.5564 0.979241 11.019720 5.268111
238 80 1 -1.1128 11.674473 6.940237 5.476640
239 80 2  0.5564 12.517813 7.284023 5.754803
240 80 2  0.5564 11.089144 6.811514 6.240885
241 81 1 -1.1128 10.274693 12.098110 6.413971
242 81 2  0.5564 10.117526 11.302539 5.914822
243 81 2  0.5564 10.250251 11.913755 7.367211
244 82 1 -1.1128 14.367279 4.568700 0.618835
245 82 2  0.5564 14.392088 5.421208 1.042391
246 82 2  0.5564 15.122820 4.463819 0.017661
247 83 1 -1.1128 6.612196 8.684171 12.318738
248 83 2  0.5564 6.933663 9.256112 13.008903
249 83 2  0.5564 5.875146 8.140243 12.641461
250 84 1 -1.1128 10.947211 8.000933 11.552052
251 84 2  0.5564 11.446323 8.798539 11.698667
252 84 2  0.5564 11.050927 7.696649 10.635589
253 85 1 -1.1128 12.853765 12.752445 9.035538
254 85 2  0.5564 11.902072 12.723648 9.020160
255 85 2  0.5564 13.183735 12.658571 9.944140
256 86 1 -1.1128 9.245270 5.081017 5.924050
257 86 2  0.5564 9.773552 5.794388 6.268730
258 86 2  0.5564 9.808808 4.335733 5.659044
259 87 1 -1.1128 0.716055 8.296330 14.997366
260 87 2  0.5564 1.666184 8.347005 15.035719
261 87 2  0.5564 0.381325 7.659340 15.649632
262 88 1 -1.1128 14.065370 7.786326 15.043641
263 88 2  0.5564 14.294350 8.300944 14.275839
264 88 2  0.5564 13.909521 6.859309 14.799507
265 89 1 -1.1128 14.025933 12.871720 4.729634
266 89 2  0.5564 13.723885 13.774600 4.710649
267 89 2  0.5564 13.779589 12.411792 3.910469
268 90 1 -1.1128 4.522726 12.615309 6.451625
269 90 2  0.5564 4.449028 13.561527 6.373996
270 90 2  0.5564 4.849960 12.369261 7.332324
271 91 1 -1.1128 10.689610 3.328902 12.368712
272 91 2  0.5564 9.767308 3.490989 12.195880
273 91 2  0.5564 11.124728 2.959813 11.582775
274 92 1 -1.1128 9.016667 7.480866 13.212216
275 92 2  0.5564 8.741464 8.057135 12.505843
276 92 2  0.5564 9.241314 6.601117 12.867503
277 93 1 -1.1128 10.064662 12.794306 10.828593
278 93 2  0.5564 10.372510 13.694269 10.874216
279 93 2  0.5564 9.514272 12.661117 10.039554
280 94 1 -1.1128 7.230592 13.283664 9.004020
281 94 2  0.5564 7.725069 13.448503 9.800956
282 94 2  0.5564 6.538283 13.954614 8.886611
283 95 1 -1.1128 2.205253 0.098827 4.940230
284 95 2  0.5564 2.235138 0.684318 4.189835
285 95 2  0.5564 2.389547 0.585103 5.760487
286 96 1 -1.1128 14.820525 2.846521 2.681604
287 96 2  0.5564 14.566973 3.736999 2.904192
288 96 2  0.5564 14.383552 2.209616 3.270380
289 97 1 -1.1128 4.161787 2.290702 8.440499
290 97 2  0.5564 3.583066 1.535482 8.401650
291 97 2  0.5564 4.051926 2.762315 9.282379
292 98 1 -1.1128 12.061717 3.934040 3.353749
293 98 2  0.5564 12.630747 4.652570 3.095477
294 98 2  0.5564 11.872073 3.973579 4.305444
295 99 1 -1.1128 8.079318 4.098832 1.859696
296 99 2  0.5564 7.232874 3.994803 2.283365
297 99 2  0.5564 8.161257 3.491299 1.106409
298 100 1 -1.1128 9.093404 14.406308 0.803871
299 100 2  0.5564 8.636318 14.819082 0.077596
300 100 2  0.5564 8.506421 13.788957 1.270326
301 101 1 -1.1128 5.103743 13.033279 2.125967
302 101 2  0.5564 5.673472 13.654421 1.682824
303 101 2  0.5564 5.489290 12.142084 2.106556
304 102 1 -1.1128 14.660890 4.387552 5.049772
305 102 2  0.5564 15.531480 4.001832 5.058658
306 102 2  0.5564 13.981852 3.696679 4.980101
307 103 1 -1.1128 3.876421 3.313248 4.891880
308 103 2  0.5564 4.697925 3.794742 4.882918
309 103 2  0.5564 3.726863 2.876905 4.037193
310 104 1 -1.1128 2.895068 7.316884 13.519611
311 104 2  0.5564 2.298267 8.058890 13.513299
312 104 2  0.5564 3.366433 7.264811 14.367168
313 105 1 -1.1128 3.841240 9.532789 0.993751
314 105 2  0.5564 3.228022 10.239845 1.169306
315 105 2  0.5564 4.724885 9.886873 0.801274
316 106 1 -1.1128 1.849394 0.676908 1.707413
317 106 2  0.5564 2.662845 0.554112 1.227826
318 106 2  0.5564 1.356602 1.436200 1.355443
319 107 1 -1.1128 3.770450 14.459441 6.703609
320 107 2  0.5564 4.247103 15.117276 7.200440
321 107 2  0.5564 3.516868 14.806456 5.832674
322 108 1 -1.1128 9.698379 3.059944 15.247358
323 108 2  0.5564 10.638612 3.097879 15.393325
324 108 2  0.5564 9.408812 3.801652 14.691236
325 109 1 -1.1128 6.416568 1.959555 12.117279
326 109 2  0.5564 6.122880 1.192519 11.635420
327 109 2  0.5564 5.659625 2.508430 12.380005
328 110 1 -1.1128 12.021964 14.063710 6.762961
329 110 2  0.5564 12.529728 14.585748 6.149416
330 110 2  0.5564 11.643394 13.287197 6.319157
331 111 1 -1.1128 3.442029 4.876145 9.749605
332 111 2  0.5564 2.564068 4.519383 9.842833
333 111 2  0.5564 3.520906 5.377453 8.921524
334 112 1 -1.1128 11.357297 2.888120 1.508615
335 112 2  0.5564 10.526680 3.137580 1.901846
336 112 2  0.5564 11.860540 3.675742 1.244704
337 113 1 -1.1128 1.246209 12.857332 14.866552
338 113 2  0.5564 2.061095 12.960771 15.348263
339 113 2  0.5564 1.233616 12.008466 14.394834
340 114 1 -1.1128 2.281285 12.367840 12.369214
341 114 2  0.5564 1.369058 12.604441 12.505772
342 114 2  0.5564 2.828201 12.673247 13.111413
343 115 1 -1.1128 3.749553 9.180835 9.281072
344 115 2  0.5564 3.354779 9.983006 9.608883
345 115 2  0.5564 3.249481 8.839546 8.521664
346 116 1 -1.1128 7.860317 12.611035 5.515099
347 116 2  0.5564 8.142304 13.486767 5.269413
348 116 2  0.5564 8.208478 12.372899 6.389929
349 117 1 -1.1128 6.573712 9.693823 2.096923
350 117 2  0.5564 6.908269 9.563006 2.978821
351 117 2  0.5564 5.706156 9.269499 1.994234
352 118 1 -1.1128 14.724005 8.689139 2.986954
353 118 2  0.5564 15.631585 8.838463 2.740405
354 118 2  0.5564 14.593028 8.867973 3.932530
355 119 1 -1.1128 2.765813 1.003006 10.436757
356 119 2  0.5564 2.182020 0.444673 9.932541
357 119 2  0.5564 3.546603 1.243489 9.911605
358 120 1 -1.1128 13.999255 1.250926 7.565135
359 120 2  0.5564 13.609347 2.028120 7.953368
360 120 2  0.5564 13.610795 1.073182 6.692921
361 121 1 -1.1128 7.940696 7.402357 1.202874
362 121 2  0.5564 8.862181 7.172429 1.272027
363 121 2  0.5564 7.473962 7.195072 2.028975
364 122 1 -1.1128 14.751192 0.833417 6.232757
365 122 2  0.5564 15.100589 0.038652 6.623979
366 122 2  0.5564 15.395799 1.557129 6.295786
367 123 1 -1.1128 14.910296 11.735771 14.287336
368 123 2  0.5564 15.071052 12.603915 13.930587
369 123 2  0.5564 15.647124 11.138646 14.078106
370 124 1 -1.1128 3.304955 8.687882 4.228445
371 124 2  0.5564 3.101723 8.715574 3.298545
372 124 2  0.5564 4.146537 8.227631 4.380631
373 125 1 -1.1128 6.670047 5.718307 7.994081
374 125 2  0.5564 6.153228 6.502117 7.834940
375 125 2  0.5564 7.032358 5.725129 8.895155
376 126 1 -1.1128 7.118384 5.925856 5.157874
377 126 2  0.5564 7.430844 5.037022 5.296174
378 126 2  0.5564 7.364075 6.240446 4.272481
379 127 1 -1.1128 11.601881 14.930530 7.402464
380 127 2  0.5564 12.232457 15.641975 7.347642
381 127 2  0.5564 11.648162 14.499232 8.271424
382 128 1 -1.1128 14.888085 13.582686 1.008801
383 128 2  0.5564 15.567215 13.184024 1.544184
384 128 2  0.5564 14.225204 12.921763 0.749919

 Bonds

1 1 1 2
2 1 1 3
3 1 4 5
4 1 4 6
5 1 7 8
6 1 7 9
7 1 10 11
8 1 10 12
9 1 13 14
10 1 13 15
11 1 16 17
12 1 16 18
13 1 19 20
14 1 19 21
15 1 22 23
16 1 22 24
17 1 25 26
18 1 25 27
19 1 28 29
20 1 28 30
21 1 31 32
22 1 31 33
23 1 34 35
24 1 34 36
25 1 37 38
26 1 37 39
27 1 40 41
28 1 40 42
29 1 43 44
30 1 43 45
31 1 46 47
32 1 46 48
33 1 49 50
34 1 49 51
35 1 52 53
36 1 52 54
37 1 55 56
38 1 55 57
39 1 58 59
40 1 58 60
41 1 61 62
42 1 61 63
43 1 64 65
44 1 64 66
45 1 67 68
46 1 67 69
47 1 70 71
48 1 70 72
49 1 73 74
50 1 73 75
51 1 76 77
52 1 76 78
53 1 79 80
54 1 79 81
55 1 82 83
56 1 82 84
57 1 85 86
58 1 85 87
59 1 88 89
60 1 88 90
61 1 91 92
62 1 91 93
63 1 94 95
64 1 94 96
65 1 97 98
66 1 97 99
67 1 100 101
68 1 100 102
69 1 103 104
70 1 103 105
71 1 106 107
72 1 106 108
73 1 109 110
74 1 109 111
75 1 112 113
76 1 112 114
77 1 115 116
78 1 115 117
79 1 118 119
80 1 118 120
81 1 121 122
82 1 121 123
83 1 124 125
84 1 124 126
85 1 127 128
86 1 127 129
87 1 130 131
88 1 130 132
89 1 133 134
90 1 133 135
91 1 136 137
92 1 136 138
93 1 139 140
94 1 139 141
95 1 142 143
96 1 142 144
97 1 145 146
98 1 145 147
99 1 148 149
100 1 148 150
101 1 151 152
102 1 151 153
103 1 154 155
104 1 154 156
105 1 157 158
106 1 157 159
107 1 160 161
108 1 160 162
109 1 163 164
110 1 163 165
111 1 166 167
112 1 166 168
113 1 169 170
114 1 169 171
115 1 172 173
116 1 172 174
117 1 175 176
118 1 175 177
119 1 178 179
120 1 178 180
121 1 181 182
122 1 181 183
123 1 184 185
124 1 184 186
125 1 187 188
126 1 187 189
127 1 190 191
128 1 190 192
129 1 193 194
130 1 193 195
131 1 196 197
132 1 196 198
133 1 199 200
134 1 199 201
135 1 202 203
136 1 202 204
137 1 205 206
138 1 205 207
139 1 208 209
140 1 208 210
141 1 211 212
142 1 211 213
143 1 214 215
144 1 214 216
145 1 217 218
146 1 217 219
147 1 220 221
148 1 220 222
149 1 223 224
150 1 223 225
151 1 226 227
152 1 226 228
153 1 229 230
154 1 229 231
155 1 232 233
156 1 232 234
157 1 235 236
158 1 235 237
159 1 238 239
160 1 238 240
161 1 241 242
162 1 241 243
163 1 244 245
164 1 244 246
165 1 247 248
166 1 247 249
167 1 250 251
168 1 250 252
169 1 253 254
170 1 253 255
171 1 256 257
172 1 256 258
173 1 259 260
174 1 259 261
175 1 262 263
176 1 262 264
177 1 265 266
178 1 265 267
179 1 268 269
180 1 268 270
181 1 271 272
182 1 271 273
183 1 274 275
184 1 274 276
185 1 277 278
186 1 277 279
187 1 280 281
188 1 280 282
189 1 283 284
190 1 283 285
191 1 286 287
192 1 286 288
193 1 289 290
194 1 289 291
195 1 292 293
196 1 292 294
197 1 295 296
198 1 295 297
199 1 298 299
200 1 298 300
201 1 301 302
202 1 301 303
203 1 304 305
204 1 304 306
205 1 307 308
206 1 307 309
207 1 310 311
208 1 310 312
209 1 313 314
210 1 313 315
211 1 316 317
212 1 316 318
213 1 319 320
214 1 319 321
215 1 322 323
216 1 322 324
217 1 325 326
218 1 325 327
219 1 328 329
220 1 328 330
221 1 331 332
222 1 331 333
223 1 334 335
224 1 334 336
225 1 337 338
226 1 337 339
227 1 340 341
228 1 340 342
229 1 343 344
230 1 343 345
231 1 346 347
232 1 346 348
233 1 349 350
234 1 349 351
235 1 352 353
236 1 352 354
237 1 355 356
238 1 355 357
239 1 358 359
240 1 358 360
241 1 361 362
242 1 361 363
243 1 364 365
244 1 364 366
245 1 367 368
246 1 367 369
247 1 370 371
248 1 370 372
249 1 373 374
250 1 373 375
251 1 376 377
252 1 376 378
253 1 379 380
254 1 379 381
255 1 382 383
256 1 382 384

 Angles

1 1 2 1 3
2 1 5 4 6
3 1 8 7 9
4 1 11 10 12
5 1 14 13 15
6 1 17 16 18
7 1 20 19 21
8 1 23 22 24
9 1 26 25 27
10 1 29 28 30
11 1 32 31 33
12 1 35 34 36
13 1 38 37 39
14 1 41 40 42
15 1 44 43 45
16 1 47 46 48
17 1 50 49 51
18 1 53 52 54
19 1 56 55 57
20 1 59 58 60
21 1 62 61 63
22 1 65 64 66
23 1 68 67 69
24 1 71 70 72
25 1 74 73 75
26 1 77 76 78
27 1 80 79 81
28 1 83 82 84
29 1 86 85 87
30 1 89 88 90
31 1 92 91 93
32 1 95 94 96
33 1 98 97 99
34 1 101 100 102
35 1 104 103 105
36 1 107 106 108
37 1 110 109 111
38 1 113 112 114
39 1 116 115 117
40 1 119 118 120
41 1 122 121 123
42 1 125 124 126
43 1 128 127 129
44 1 131 130 132
45 1 134 133 135
46 1 137 136 138
47 1 140 139 141
48 1 143 142 144
49 1 146 145 147
50 1 149 148 150
51 1 152 151 153
52 1 155 154 156
53 1 158 157 159
54 1 161 160 162
55 1 164 163 165
56 1 167 166 168
57 1 170 169 171
58 1 173 172 174
59 1 176 175 177
60 1 179 178 180
61 1 182 181 183
62 1 185 184 186
63 1 188 187 189
64 1 191 190 192
65 1 194 193 195
66 1 197 196 198
67 1 200 199 201
68 1 203 202 204
69 1 206 205 207
70 1 209 208 210
71 1 212 211 213
72 1 215 214 216
73 1 218 217 219
74 1 221 220 222
75 1 224 223 225
76 1 227 226 228
77 1 230 229 231
78 1 233 232 234
79 1 236 235 237
80 1 239 238 240
81 1 242 241 243
82 1 245 244 246
83 1 248 247 249
84 1 251 250 252
85 1 254 253 255
86 1 257 256 258
87 1 260 259 261
88 1 263 262 264
89 1 266 265 267
90 1 269 268 270
91 1 272 271 273
92 1 275 274 276
93 1 278 277 279
94 1 281 280 282
95 1 284 283 285
96 1 287 286 288
97 1 290 289 291
98 1 293 292 294
99 1 296 295 297
100 1 299 298 300
101 1 302 301 303
102 1 305 304 306
103 1 308 307 309
104 1 311 310 312
105 1 314 313 315
106 1 317 316 318
107 1 320 319 321
108 1 323 322 324
109 1 326 325 327
110 1 329 328 330
111 1 332 331 333
112 1 335 334 336
113 1 338 337 339
114 1 341 340 342
115 1 344 343 345
116 1 347 346 348
117 1 350 349 351
118 1 353 352 354
119 1 356 355 357
120 1 359 358 360
121 1 362 361 363
122 1 365 364 366
123 1 368 367 369
124 1 371 370 372
125 1 374 373 375
126 1 377 376 378
127 1 380 379 381
128 1 383 382 384

