98
# CELL(abcABC):   18.63270    18.63270    18.63270    90.00000    90.00000    90.00000  Step:         100  Bead:       0 x_centroid{angstrom}  cell{atomic_unit}
       O  6.39060e+00  5.04823e+00  8.31418e+00
       H  7.14437e+00  4.51043e+00  8.05769e+00
       H  5.85599e+00  4.50728e+00  8.91030e+00
       O  1.26413e+00  4.03685e+00  2.89100e+00
       H  9.45529e-01  4.49103e+00  3.66584e+00
       H  1.65326e+00  4.69741e+00  2.31024e+00
       O  7.84048e+00  6.75046e+00  1.00838e+01
       H  7.45949e+00  6.08244e+00  9.51540e+00
       H  7.14361e+00  7.36892e+00  1.02639e+01
       O  8.70150e+00  3.63230e+00  7.42858e+00
       H  8.93435e+00  3.87172e+00  6.53240e+00
       H  9.51008e+00  3.60856e+00  7.93940e+00
       O  1.28330e+00  1.97424e+00  8.60986e+00
       H  2.06789e+00  1.97263e+00  8.06672e+00
       H  1.63579e+00  2.03491e+00  9.49795e+00
       O  5.95287e+00  9.94833e+00  4.67335e+00
       H  6.28625e+00  9.57551e+00  5.49763e+00
       H  6.46294e+00  9.50730e+00  3.98148e+00
       O  6.67193e+00  6.56725e+00  4.72060e+00
       H  7.19239e+00  5.75794e+00  4.74790e+00
       H  6.60798e+00  6.82165e+00  3.79993e+00
       O  7.06622e+00  9.00579e+00  7.00637e+00
       H  7.54169e+00  9.67023e+00  7.52666e+00
       H  7.77173e+00  8.49859e+00  6.60193e+00
       O  8.44540e+00  2.14182e+00  3.85922e+00
       H  8.50545e+00  2.28127e+00  2.90265e+00
       H  8.68831e+00  1.24322e+00  4.01956e+00
       O  3.38406e+00  4.69860e+00  7.19017e+00
       H  4.27529e+00  4.93322e+00  6.94636e+00
       H  2.82145e+00  4.98337e+00  6.45811e+00
       O  3.16040e+00  1.82836e+00  9.17055e-01
       H  3.25475e+00  1.47899e+00  1.80872e+00
       H  3.59867e+00  1.18735e+00  3.38073e-01
       O  1.11142e+01  8.64919e+00  7.27519e+00
       H  1.03820e+01  8.55966e+00  6.65941e+00
       H  1.14326e+01  9.53213e+00  7.18531e+00
       O  2.64292e+00  7.87610e+00  3.03962e+00
       H  2.82842e+00  8.81974e+00  3.04709e+00
       H  3.15213e+00  7.54403e+00  3.77613e+00
       O  6.88271e+00  4.07196e-01  6.31381e-01
       H  7.52512e+00  7.20218e-01 -1.14149e-02
       H  6.04024e+00  4.49677e-01  1.72784e-01
       O  3.49566e+00  6.40146e-01  3.47287e+00
       H  3.09613e+00  1.21990e+00  4.11605e+00
       H  4.33437e+00  3.43889e-01  3.85053e+00
       O  9.10996e+00  7.84524e+00  5.40511e+00
       H  9.79507e+00  7.22086e+00  5.16165e+00
       H  8.31830e+00  7.47234e+00  5.01002e+00
       O  3.65456e+00  2.01057e+00  7.07788e+00
       H  4.41216e+00  2.08353e+00  6.48257e+00
       H  3.49755e+00  2.95061e+00  7.25607e+00
       O  4.05575e+00  7.25036e+00  5.64302e+00
       H  4.86318e+00  6.93333e+00  5.22710e+00
       H  4.34866e+00  7.43074e+00  6.54082e+00
       O  8.94596e+00  3.17548e+00  1.35874e+00
       H  8.18500e+00  3.70257e+00  1.62166e+00
       H  9.72207e+00  3.51997e+00  1.81764e+00
       O  8.50400e+00  1.03103e+00  8.33693e+00
       H  9.42982e+00  1.08455e+00  8.58553e+00
       H  8.34027e+00  1.90812e+00  7.98406e+00
       O  1.60748e+00  6.28184e+00  8.58772e+00
       H  1.52083e+00  7.18671e+00  8.25399e+00
       H  2.37109e+00  5.87212e+00  8.16361e+00
       O  4.50008e+00  1.00998e+01  9.05543e+00
       H  4.51085e+00  9.17830e+00  8.78736e+00
       H  4.29618e+00  1.06203e+01  8.27030e+00
       O  9.29410e+00  6.67014e+00  2.52077e+00
       H  1.01164e+01  7.11895e+00  2.35920e+00
       H  8.88689e+00  6.53225e+00  1.64723e+00
       O  7.24923e+00  8.56661e+00  2.68212e+00
       H  7.17638e+00  9.20238e+00  1.94542e+00
       H  8.04708e+00  8.03724e+00  2.56780e+00
       O  5.18014e+00  7.49534e+00  8.16216e+00
       H  5.90117e+00  8.01693e+00  7.76527e+00
       H  5.56636e+00  6.61677e+00  8.29070e+00
       O  2.64671e+00  5.81521e+00  1.23328e+00
       H  2.18447e+00  5.98289e+00  3.95587e-01
       H  2.65179e+00  6.65321e+00  1.72257e+00
       O  8.76017e+00  4.72974e+00  4.58880e+00
       H  8.64439e+00  3.83135e+00  4.23807e+00
       H  8.91833e+00  5.28113e+00  3.81767e+00
       O  6.60595e+00  4.42470e+00  2.27175e+00
       H  5.96002e+00  4.54252e+00  2.96943e+00
       H  6.03407e+00  4.23420e+00  1.52434e+00
       O  5.69736e+00  2.72260e+00  5.42898e+00
       H  6.51889e+00  3.19514e+00  5.48129e+00
       H  5.91414e+00  1.88691e+00  4.99926e+00
       O  1.55288e+00  6.04792e+00  5.64002e+00
       H  2.33539e+00  6.61232e+00  5.57969e+00
       H  1.21365e+00  6.18866e+00  6.52440e+00
       O  4.16940e+00  5.00399e+00  3.49869e+00
       H  3.65374e+00  4.28119e+00  3.83484e+00
       H  3.75933e+00  5.25422e+00  2.67363e+00
       O  4.66159e+00  4.04964e+00  3.29995e-01
       H  4.18451e+00  3.23739e+00  5.45502e-01
       H  4.01081e+00  4.74024e+00  4.78289e-01
       L  0.00000e+00  0.00000e+00  0.00000e+00
       L  0.00000e+00  0.00000e+00  0.00000e+00

