386
# CELL(abcABC):   29.57421    29.57421    29.57421    90.00000    90.00000    90.00000  Step:         100  Bead:       0 x_centroid{angstrom}  cell{atomic_unit}
       O  2.62983e+00  3.37950e+00  1.16124e+01
       H  1.82903e+00  3.91807e+00  1.16175e+01
       H  3.32697e+00  4.03150e+00  1.15894e+01
       O  1.24292e+01  1.07092e+01  1.17875e+01
       H  1.16083e+01  1.12266e+01  1.17205e+01
       H  1.29869e+01  1.12303e+01  1.23724e+01
       O  4.05968e-01  4.89767e+00  1.11787e+01
       H -3.66002e-01  4.43796e+00  1.15097e+01
       H  3.94629e-01  5.79570e+00  1.15319e+01
       O  1.07517e+01  6.37282e+00  3.81061e+00
       H  1.00139e+01  6.61441e+00  4.36794e+00
       H  1.03639e+01  5.91252e+00  3.06423e+00
       O  2.82995e+00  5.21808e+00  5.22008e+00
       H  3.42408e+00  5.96522e+00  5.11445e+00
       H  2.00755e+00  5.59760e+00  5.57732e+00
       O  1.54980e+01  1.18437e+01  6.70184e+00
       H  1.49960e+01  1.21229e+01  5.92745e+00
       H  1.62383e+01  1.13220e+01  6.36070e+00
       O  5.63941e+00  8.75713e+00  1.46353e+01
       H  5.87799e+00  9.11180e+00  1.37737e+01
       H  6.43467e+00  8.33111e+00  1.49659e+01
       O  5.27873e+00  1.51485e+01  9.45925e+00
       H  4.54472e+00  1.47106e+01  9.91112e+00
       H  4.97602e+00  1.60525e+01  9.29843e+00
       O  1.41416e+01  1.45949e+01  8.04409e+00
       H  1.32344e+01  1.43393e+01  8.23777e+00
       H  1.46619e+01  1.37942e+01  8.04377e+00
       O  1.27142e+01  6.11381e+00  1.31600e+01
       H  1.33525e+01  6.82266e+00  1.32670e+01
       H  1.20756e+01  6.53572e+00  1.25877e+01
       O  1.00958e+01  3.20531e+00  3.63049e+00
       H  9.27839e+00  2.91765e+00  4.06322e+00
       H  9.80697e+00  3.69968e+00  2.86127e+00
       O  9.65289e+00  1.25845e+01  8.76665e+00
       H  8.73806e+00  1.27842e+01  9.00639e+00
       H  9.63182e+00  1.18644e+01  8.13266e+00
       O  7.70683e+00  1.04127e+01  7.95270e+00
       H  8.30338e+00  9.82905e+00  8.43047e+00
       H  7.00985e+00  1.06116e+01  8.58846e+00
       O  1.34327e+01  3.62729e-02  3.53828e+00
       H  1.41781e+01  6.44246e-01  3.57440e+00
       H  1.35024e+01 -5.03688e-01  4.32005e+00
       O  5.62156e+00  9.43061e+00  6.54768e+00
       H  5.32885e+00  1.00334e+01  5.85819e+00
       H  6.43869e+00  9.81587e+00  6.89166e+00
       O  6.32456e+00  4.21681e+00  1.01039e+01
       H  6.59603e+00  4.36808e+00  9.20361e+00
       H  6.45314e+00  3.29086e+00  1.02764e+01
       O  1.97231e+00  1.03980e+01  5.82187e+00
       H  2.27322e+00  9.49572e+00  5.93405e+00
       H  2.68161e+00  1.09351e+01  6.19406e+00
       O  1.51090e+00  1.63924e+01  8.26400e+00
       H  1.52797e+00  1.54262e+01  8.15299e+00
       H  1.80080e+00  1.67687e+01  7.42326e+00
       O  1.15991e+01  1.12927e+01  3.63303e+00
       H  1.21636e+01  1.08442e+01  2.99501e+00
       H  1.13031e+01  1.20947e+01  3.19205e+00
       O  8.31208e+00  1.45125e+01  1.20654e+01
       H  7.82728e+00  1.53291e+01  1.19365e+01
       H  7.83628e+00  1.40623e+01  1.27581e+01
       O  9.42568e+00  1.54295e+01  6.07569e+00
       H  9.94957e+00  1.57644e+01  5.32575e+00
       H  9.78434e+00  1.58705e+01  6.86041e+00
       O  1.21115e+01  4.71485e+00  1.54600e+01
       H  1.13164e+01  5.06110e+00  1.58527e+01
       H  1.21889e+01  5.17080e+00  1.46087e+01
       O  1.04092e+01  1.53288e+01  2.78627e-01
       H  1.12069e+01  1.52338e+01 -2.46108e-01
       H  1.05540e+01  1.47177e+01  1.00959e+00
       O  1.32833e+00  1.37071e+01  8.27683e+00
       H  1.03025e+00  1.29269e+01  7.81059e+00
       H  1.89980e+00  1.34045e+01  8.98500e+00
       O  1.25129e+01  1.09643e+01  1.51102e+01
       H  1.32277e+01  1.12652e+01  1.45415e+01
       H  1.28721e+01  1.09499e+01  1.59958e+01
       O  1.40653e+01  1.35940e+01  1.99113e+00
       H  1.40089e+01  1.44464e+01  2.44744e+00
       H  1.41279e+01  1.29887e+01  2.72700e+00
       O  1.37334e+01  1.43803e+01  1.17796e+01
       H  1.42971e+01  1.49615e+01  1.12776e+01
       H  1.28937e+01  1.43811e+01  1.13342e+01
       O  4.89898e-01  6.28003e+00  6.01175e+00
       H  1.86640e-01  6.86519e+00  5.31143e+00
       H  7.04014e-02  6.51757e+00  6.84062e+00
       O  5.59252e+00  1.08013e+01  9.60110e+00
       H  5.98932e+00  1.16714e+01  9.77103e+00
       H  5.80612e+00  1.02842e+01  1.03898e+01
       O  6.47964e+00  1.22734e+01  1.27281e+01
       H  6.76492e+00  1.20451e+01  1.36171e+01
       H  6.17064e+00  1.14450e+01  1.23808e+01
       O  7.83313e+00  1.28952e+01  2.71698e+00
       H  8.61043e+00  1.24694e+01  2.35670e+00
       H  7.93306e+00  1.29053e+01  3.68179e+00
       O  1.13061e+00  5.09710e+00  2.77033e+00
       H  1.96887e+00  5.10713e+00  3.22214e+00
       H  7.50893e-01  5.97043e+00  2.92935e+00
       O  1.60272e+01  3.27234e-01  1.01758e+00
       H  1.56359e+01  1.20062e+00  8.50912e-01
       H  1.60080e+01  3.09452e-01  1.96987e+00
       O  1.06361e+01  7.48004e+00  1.60533e+01
       H  1.07395e+01  8.10643e+00  1.53262e+01
       H  1.14420e+01  7.60873e+00  1.65489e+01
       O  6.36223e+00  5.39198e+00  1.45853e+01
       H  6.32119e+00  5.71485e+00  1.36747e+01
       H  7.06792e+00  5.92431e+00  1.49686e+01
       O  4.91908e+00  3.92402e+00  6.34486e+00
       H  4.07338e+00  4.27168e+00  6.03295e+00
       H  5.00113e+00  3.02173e+00  6.01684e+00
       O  1.06665e+01  9.23269e+00  1.39450e+01
       H  1.10706e+01  9.10148e+00  1.30782e+01
       H  1.11763e+01  9.94747e+00  1.43386e+01
       O  1.50626e+01  3.68496e+00  4.35918e+00
       H  1.42164e+01  3.77707e+00  3.88420e+00
       H  1.56667e+01  4.23730e+00  3.84010e+00
       O  1.36547e+01  1.03362e+01  2.03614e+00
       H  1.37050e+01  9.51371e+00  1.52238e+00
       H  1.44155e+01  1.03146e+01  2.62615e+00
       O  1.42647e+01  2.62562e+00  1.17102e+01
       H  1.45752e+01  1.97628e+00  1.10767e+01
       H  1.40491e+01  2.12474e+00  1.24844e+01
       O  1.35552e+01  1.00339e+01  7.59851e+00
       H  1.42499e+01  1.04796e+01  7.11019e+00
       H  1.33695e+01  1.06926e+01  8.27588e+00
       O  1.42382e+01  8.39949e+00  1.32453e+01
       H  1.38318e+01  8.99015e+00  1.26182e+01
       H  1.50323e+01  8.08461e+00  1.27929e+01
       O  1.52207e+01  1.61259e+01  1.01633e+01
       H  1.46886e+01  1.56513e+01  9.52060e+00
       H  1.59756e+01  1.63273e+01  9.60243e+00
       O  2.98495e+00  1.25104e+01  2.97073e+00
       H  3.53517e+00  1.32668e+01  2.76228e+00
       H  2.26125e+00  1.28497e+01  3.47407e+00
       O  8.31189e-01  1.01510e+01  1.44208e+01
       H  7.72142e-01  9.21023e+00  1.42466e+01
       H  1.59141e+00  1.04551e+01  1.39323e+01
       O  3.34424e+00  8.00257e+00  7.28155e+00
       H  4.15786e+00  8.39379e+00  6.94490e+00
       H  3.55996e+00  7.11223e+00  7.52661e+00
       O  1.31889e+01  6.97933e+00  4.94224e+00
       H  1.23009e+01  6.89528e+00  4.57830e+00
       H  1.33290e+01  6.20952e+00  5.51384e+00
       O  6.60634e+00  6.48620e+00  1.20760e+01
       H  7.33295e+00  7.09875e+00  1.21906e+01
       H  6.89710e+00  5.87030e+00  1.14081e+01
       O  9.54225e+00  5.00900e+00  1.50533e+00
       H  8.83919e+00  4.47813e+00  1.13767e+00
       H  9.49609e+00  5.84705e+00  1.04991e+00
       O  9.68126e+00  1.19539e+01  6.43149e-01
       H  1.03583e+01  1.23188e+01  8.94744e-02
       H  8.86590e+00  1.19600e+01  1.36819e-01
       O  1.50167e+01  5.92641e+00  8.57587e+00
       H  1.56616e+01  5.44348e+00  9.08758e+00
       H  1.47120e+01  6.60762e+00  9.16665e+00
       O  7.11681e+00  1.16163e+01 -3.36040e-01
       H  6.54259e+00  1.22767e+01  8.02556e-02
       H  7.12110e+00  1.09212e+01  3.22691e-01
       O  4.58910e+00  1.47351e+01  3.80213e+00
       H  5.11500e+00  1.41040e+01  4.27886e+00
       H  3.73489e+00  1.47736e+01  4.25355e+00
       O  1.63625e+00  9.43325e+00  1.31280e+00
       H  2.54381e+00  9.76534e+00  1.22408e+00
       H  1.20832e+00  9.80761e+00  5.31535e-01
       O  1.35290e+01  1.19026e+01  9.61006e+00
       H  1.31202e+01  1.14427e+01  1.03595e+01
       H  1.44574e+01  1.19273e+01  9.83622e+00
       O  1.11634e+01  1.38413e+01  2.48064e+00
       H  1.21076e+01  1.38840e+01  2.31011e+00
       H  1.09418e+01  1.46209e+01  3.00560e+00
       O  4.72953e+00  1.45146e+00  5.15241e+00
       H  3.86420e+00  1.73904e+00  4.86111e+00
       H  4.90674e+00  7.33384e-01  4.53599e+00
       O  4.73187e+00  1.07658e+01  4.22831e+00
       H  4.14589e+00  1.14335e+01  3.85914e+00
       H  4.20253e+00  9.96474e+00  4.11394e+00
       O  3.87012e+00  5.99086e+00  1.10459e+01
       H  4.82482e+00  5.99914e+00  1.09938e+01
       H  3.70328e+00  6.37031e+00  1.19148e+01
       O  2.81963e+00  1.59085e+00  2.97307e+00
       H  1.88885e+00  1.43970e+00  3.16488e+00
       H  3.06456e+00  9.18705e-01  2.33059e+00
       O  5.20001e+00  6.62580e+00  4.71446e+00
       H  5.60403e+00  5.76645e+00  4.82079e+00
       H  5.76391e+00  7.03720e+00  4.04442e+00
       O  1.31182e+01  1.51822e+01 -4.03499e-01
       H  1.30989e+01  1.60372e+01  2.14857e-02
       H  1.35836e+01  1.46209e+01  2.04851e-01
       O  3.07551e+00  1.39566e+01  1.06265e+01
       H  2.77252e+00  1.47978e+01  1.09964e+01
       H  2.86714e+00  1.33369e+01  1.13253e+01
       O  6.94102e+00  4.50626e+00  4.01830e+00
       H  7.06535e+00  4.37609e+00  3.07209e+00
       H  7.13643e+00  3.63643e+00  4.38929e+00
       O  1.58788e+01  1.17115e+00  3.77436e+00
       H  1.57425e+01  8.11701e-01  4.66432e+00
       H  1.55638e+01  2.08889e+00  3.87030e+00
       O  2.09369e+00  2.36254e+00  6.09163e+00
       H  1.60213e+00  2.98412e+00  5.56554e+00
       H  2.60792e+00  2.92462e+00  6.66539e+00
       O  8.47023e-01  1.11537e+01  1.02548e+01
       H  1.18407e+00  1.14993e+01  1.10790e+01
       H  1.60284e+00  1.06694e+01  9.88278e+00
       O  6.70682e+00  7.52333e+00  2.64654e+00
       H  5.98763e+00  7.08939e+00  2.13309e+00
       H  6.59930e+00  8.48446e+00  2.51443e+00
       O  6.81285e+00  5.50077e+00  7.46963e+00
       H  6.14726e+00  4.91867e+00  7.07701e+00
       H  7.31419e+00  5.82694e+00  6.71869e+00
       O  7.92157e+00  1.96758e+00  4.66360e+00
       H  8.28613e+00  1.29828e+00  5.23874e+00
       H  7.54109e+00  1.48134e+00  3.94527e+00
       O  9.96828e+00  5.49374e+00  1.06975e+01
       H  1.03068e+01  4.62023e+00  1.09369e+01
       H  9.88059e+00  5.47738e+00  9.75057e+00
       O  6.98664e+00  2.66154e+00  1.44111e+01
       H  6.71912e+00  3.58848e+00  1.43901e+01
       H  7.95572e+00  2.69288e+00  1.44131e+01
       O  9.40858e+00  5.72313e+00  1.34188e+01
       H  9.72796e+00  6.59215e+00  1.36034e+01
       H  9.40223e+00  5.65269e+00  1.24574e+01
       O  6.63426e-01  7.59012e+00  1.17005e+01
       H  2.43248e-01  8.07315e+00  1.09756e+01
       H  1.60142e+00  7.72196e+00  1.15919e+01
       O  1.07752e+01  5.69371e-01  3.82506e+00
       H  1.17348e+01  5.65526e-01  3.71776e+00
       H  1.05394e+01  1.48257e+00  3.62651e+00
       O  1.49089e+01  8.95142e+00  9.75079e+00
       H  1.44473e+01  9.16733e+00  8.93348e+00
       H  1.54418e+01  9.73868e+00  9.91916e+00
       O  4.89559e+00  6.18608e+00  1.20771e+00
       H  4.54849e+00  5.38598e+00  1.60803e+00
       H  5.21973e+00  5.90678e+00  3.47903e-01
       O  9.18542e+00  8.47574e+00  9.20445e+00
       H  8.33506e+00  8.01365e+00  9.14359e+00
       H  9.69255e+00  8.28207e+00  8.40824e+00
       O  3.26863e-01  1.01271e+01  3.57887e+00
       H  8.52556e-01  9.93961e+00  2.78394e+00
       H  9.81316e-01  1.02090e+01  4.28328e+00
       O  1.11225e+01  7.97181e+00  7.05481e+00
       H  1.19778e+01  8.02206e+00  6.64181e+00
       H  1.09393e+01  7.02725e+00  7.12591e+00
       O  1.09347e+01  1.11175e+01  6.38893e+00
       H  1.09688e+01  1.09872e+01  5.43845e+00
       H  1.14798e+01  1.04229e+01  6.75646e+00
       O  1.47232e+01  5.50875e+00  5.62802e-03
       H  1.37913e+01  5.24210e+00  3.52049e-02
       H  1.50912e+01  4.84508e+00 -5.58903e-01
       O  6.04895e+00  9.47775e+00  1.19822e+01
       H  7.01397e+00  9.32733e+00  1.20321e+01
       H  5.69046e+00  8.61961e+00  1.17479e+01
       O  1.12397e+01  7.80252e+00  1.15044e+01
       H  1.15503e+01  8.41770e+00  1.08535e+01
       H  1.07612e+01  7.11278e+00  1.10282e+01
       O  1.18571e+01  1.40745e+01  9.50980e+00
       H  1.10534e+01  1.36610e+01  9.17075e+00
       H  1.24542e+01  1.33212e+01  9.63418e+00
       O  1.02775e+01  5.40799e+00  7.27330e+00
       H  9.60393e+00  5.54254e+00  6.60916e+00
       H  1.09298e+01  4.83099e+00  6.88614e+00
       O  1.20702e+00  7.36235e+00  1.51165e+01
       H  1.43899e+00  7.84267e+00  1.59166e+01
       H  5.68777e-01  6.69872e+00  1.53784e+01
       O  1.36088e+01  8.09802e+00  1.60837e+01
       H  1.36931e+01  8.42230e+00  1.51866e+01
       H  1.41139e+01  7.28688e+00  1.60757e+01
       O  1.37109e+01  1.27170e+01  4.71725e+00
       H  1.31435e+01  1.31324e+01  5.37991e+00
       H  1.31071e+01  1.20644e+01  4.34375e+00
       O  3.81674e+00  1.20299e+01  7.17904e+00
       H  4.06456e+00  1.29503e+01  7.08224e+00
       H  4.44477e+00  1.16456e+01  7.77775e+00
       O  1.08266e+01  2.96273e+00  1.15022e+01
       H  1.03464e+01  2.23954e+00  1.11157e+01
       H  1.17313e+01  2.85539e+00  1.12203e+01
       O  8.52337e+00  8.59237e+00  1.23417e+01
       H  9.11629e+00  8.55707e+00  1.16046e+01
       H  9.08536e+00  8.92528e+00  1.30681e+01
       O  1.01709e+01  1.21774e+01  1.14404e+01
       H  9.73215e+00  1.29496e+01  1.17914e+01
       H  1.00057e+01  1.22099e+01  1.04933e+01
       O  7.09309e+00  1.30896e+01  9.82214e+00
       H  7.35143e+00  1.32802e+01  1.07290e+01
       H  6.58170e+00  1.38738e+01  9.58978e+00
       O  2.23431e+00 -6.02891e-01  5.21601e+00
       H  2.22666e+00  3.48278e-01  5.24646e+00
       H  2.71464e+00 -8.70052e-01  6.00495e+00
       O  1.47626e+01  2.72806e+00  9.32406e-01
       H  1.49235e+01  3.63609e+00  1.17043e+00
       H  1.38113e+01  2.59771e+00  1.00189e+00
       O  3.98153e+00  1.83391e+00  8.78882e+00
       H  3.10906e+00  1.43078e+00  8.80923e+00
       H  3.81020e+00  2.77739e+00  8.80999e+00
       O  1.27420e+01  4.22996e+00  3.14126e+00
       H  1.24902e+01  5.11565e+00  3.37629e+00
       H  1.19338e+01  3.72932e+00  3.24512e+00
       O  6.97484e+00  3.41741e+00  1.44972e+00
       H  6.04234e+00  3.41513e+00  1.68686e+00
       H  6.99432e+00  2.95349e+00  6.07082e-01
       O  7.71221e+00  1.52975e+01  1.35262e+00
       H  8.50259e+00  1.54041e+01  8.26552e-01
       H  7.85123e+00  1.44782e+01  1.83609e+00
       O  5.56412e+00  1.32676e+01  1.11644e+00
       H  5.81672e+00  1.41868e+01  1.06504e+00
       H  6.16223e+00  1.29241e+01  1.78865e+00
       O  1.35547e+01  4.74948e+00  6.50330e+00
       H  1.40609e+01  5.13225e+00  7.23144e+00
       H  1.42099e+01  4.40251e+00  5.87595e+00
       O  4.44331e+00  3.80881e+00  2.56410e+00
       H  4.82714e+00  3.89709e+00  3.43158e+00
       H  3.81828e+00  3.07926e+00  2.63457e+00
       O  3.49460e+00  7.25641e+00  1.34994e+01
       H  2.75705e+00  7.18871e+00  1.41111e+01
       H  4.21207e+00  7.64014e+00  1.40067e+01
       O  4.13180e+00  1.02947e+01  6.96475e-01
       H  3.92541e+00  1.11954e+01  4.23372e-01
       H  4.58258e+00  9.86285e+00 -4.13224e-02
       O  3.05811e+00 -1.53801e-01  7.11818e-01
       H  3.37485e+00  3.32737e-01 -3.39066e-02
       H  2.10321e+00 -1.99811e-02  7.14961e-01
       O  4.39174e+00  1.48057e+01  6.91538e+00
       H  4.72137e+00  1.49152e+01  7.82124e+00
       H  4.66574e+00  1.56082e+01  6.47697e+00
       O  9.68689e+00  3.11072e+00  1.43396e+01
       H  1.02482e+01  2.72626e+00  1.36717e+01
       H  9.63799e+00  4.03712e+00  1.40756e+01
       O  6.58761e+00  1.27727e+00  1.20435e+01
       H  5.69508e+00  9.60819e-01  1.20326e+01
       H  6.68096e+00  1.77727e+00  1.28648e+01
       O  1.16780e+01  1.37377e+01  6.26723e+00
       H  1.08739e+01  1.42589e+01  6.28563e+00
       H  1.13749e+01  1.28253e+01  6.37626e+00
       O  2.75058e+00  4.33578e+00  8.95036e+00
       H  2.31506e+00  3.92140e+00  9.69306e+00
       H  3.24301e+00  5.01909e+00  9.40073e+00
       O  1.20282e+01  2.06279e+00  7.51169e-01
       H  1.12562e+01  1.50814e+00  6.32539e-01
       H  1.18154e+01  2.90625e+00  3.32600e-01
       O  2.86348e+00  1.26449e+01  1.52598e+01
       H  3.36560e+00  1.33084e+01  1.57303e+01
       H  1.95014e+00  1.28519e+01  1.54782e+01
       O  1.92269e+00  1.23338e+01  1.26733e+01
       H  1.03330e+00  1.25790e+01  1.29068e+01
       H  2.42895e+00  1.25145e+01  1.34778e+01
       O  3.00023e+00  9.68256e+00  9.43145e+00
       H  3.84723e+00  1.01274e+01  9.42982e+00
       H  3.02028e+00  9.08355e+00  8.67495e+00
       O  7.81430e+00  1.31242e+01  5.43273e+00
       H  8.35194e+00  1.38566e+01  5.73475e+00
       H  7.78075e+00  1.24972e+01  6.14319e+00
       O  6.44386e+00  1.01395e+01  2.07894e+00
       H  6.18753e+00  1.04941e+01  2.93259e+00
       H  5.60578e+00  1.01847e+01  1.59420e+00
       O  1.55131e+01  7.41081e+00  3.58144e+00
       H  1.56562e+01  8.36282e+00  3.59573e+00
       H  1.46100e+01  7.29543e+00  3.90602e+00
       O  2.20394e+00  6.45179e-01  1.17605e+01
       H  1.25963e+00  6.00104e-01  1.16572e+01
       H  2.42017e+00  1.58340e+00  1.17352e+01
       O  1.27138e+01  2.31797e+00  7.33364e+00
       H  1.29558e+01  3.22034e+00  7.08817e+00
       H  1.34220e+01  1.77774e+00  6.97575e+00
       O  7.87799e+00  7.41288e+00  2.06132e-01
       H  8.78552e+00  7.70985e+00  2.81180e-01
       H  7.54387e+00  7.45703e+00  1.11403e+00
       O  1.48904e+01  8.87044e-01  6.40328e+00
       H  1.45964e+01  1.07669e-01  6.90505e+00
       H  1.55918e+01  1.21954e+00  6.95739e+00
       O  1.45022e+01  1.17373e+01  1.33860e+01
       H  1.46255e+01  1.25972e+01  1.37888e+01
       H  1.51701e+01  1.11502e+01  1.37741e+01
       O  3.26919e+00  8.44572e+00  4.01415e+00
       H  2.87626e+00  8.18881e+00  3.19041e+00
       H  3.92409e+00  7.78215e+00  4.25130e+00
       O  6.56601e+00  7.62442e+00  9.19574e+00
       H  6.06046e+00  8.29843e+00  8.75551e+00
       H  6.55514e+00  6.87346e+00  8.58989e+00
       O  8.33681e+00  6.46651e+00  5.32118e+00
       H  7.90321e+00  5.85211e+00  4.70922e+00
       H  7.94055e+00  7.30995e+00  5.12293e+00
       O  1.06573e+01  1.64555e+01  8.34247e+00
       H  1.13564e+01  1.70335e+01  8.00591e+00
       H  1.11048e+01  1.57391e+01  8.79061e+00
       O  1.58161e+01  1.34193e+01 -2.38235e-01
       H  1.58997e+01  1.43632e+01 -9.61789e-02
       H  1.53336e+01  1.31494e+01  5.43945e-01
       L  0.00000e+00  0.00000e+00  0.00000e+00
       L  0.00000e+00  0.00000e+00  0.00000e+00

