LAMMPS data file. CGCMM style. atom_style full generated by VMD/TopoTools v1.5 on Wed Nov 30 12:14:08 GMT 2016
 192 atoms
 128 bonds
 64 angles
 0 dihedrals
 0 impropers
 2 atom types
 1 bond types
 1 angle types
 0 dihedral types
 0 improper types
 0.0 23.47  xlo xhi
 0.0 23.47  ylo yhi
 0.0 23.47  zlo zhi

 Masses

  1 15.994914
  2  1.007825

 Bond Coeffs

  1    1.780    0.2708585 -0.327738785 0.231328959

 Angle Coeffs

  1    0.0700  107.400000

 Atoms

1 1 1 -1.1128 0.665905 1.209544 11.120793
2 1 2  0.5564 0.176353 0.766324 11.806854
3 1 2  0.5564 1.486695 1.587643 11.476595
4 2 1 -1.1128 9.669108 11.186317 4.926261
5 2 2  0.5564 10.094242 10.345559 5.064725
6 2 2  0.5564 10.228596 11.909916 5.252800
7 3 1 -1.1128 4.903092 8.530250 4.612658
8 3 2  0.5564 4.700020 9.058439 5.378532
9 3 2  0.5564 4.958748 7.590354 4.850876
10 4 1 -1.1128 1.849651 2.316555 1.808520
11 4 2  0.5564 1.784738 2.343810 2.758166
12 4 2  0.5564 1.206421 2.921849 1.404632
13 5 1 -1.1128 0.713941 5.112650 6.331231
14 5 2  0.5564 0.138784 5.690389 5.839096
15 5 2  0.5564 0.958487 4.338715 5.797870
16 6 1 -1.1128 7.954302 6.113712 9.769623
17 6 2  0.5564 8.285068 5.280880 10.091756
18 6 2  0.5564 7.344091 6.510633 10.412544
19 7 1 -1.1128 1.498805 0.655769 0.899808
20 7 2  0.5564 1.534704 0.215822 1.743575
21 7 2  0.5564 2.370284 0.644401 0.471269
22 8 1 -1.1128 9.314205 2.661960 7.609259
23 8 2  0.5564 8.572057 2.287915 7.144403
24 8 2  0.5564 9.519578 2.139342 8.401688
25 9 1 -1.1128 7.056431 4.506752 5.064825
26 9 2  0.5564 7.063327 3.966580 4.280637
27 9 2  0.5564 6.362391 5.183690 5.007250
28 10 1 -1.1128 11.578480 6.239405 11.076510
29 10 2  0.5564 12.419980 5.855395 10.850238
30 10 2  0.5564 11.117580 5.690401 11.731809
31 11 1 -1.1128 10.656794 6.713420 9.388902
32 11 2  0.5564 10.187903 7.514223 9.175268
33 11 2  0.5564 10.707198 6.593475 10.351359
34 12 1 -1.1128 9.299774 8.708125 12.023669
35 12 2  0.5564 10.155272 8.557717 12.413907
36 12 2  0.5564 8.872849 9.482871 12.424612
37 13 1 -1.1128 9.124421 7.361364 0.412449
38 13 2  0.5564 9.156606 6.445348 0.154257
39 13 2  0.5564 8.690802 7.457816 1.276117
40 14 1 -1.1128 4.598641 2.335894 1.922557
41 14 2  0.5564 4.656787 1.390728 2.022885
42 14 2  0.5564 4.465844 2.763385 2.784454
43 15 1 -1.1128 11.594116 9.553872 9.683515
44 15 2  0.5564 12.126054 10.343700 9.684286
45 15 2  0.5564 10.960899 9.569192 8.947273
46 16 1 -1.1128 7.067447 6.709123 7.932427
47 16 2  0.5564 7.946947 6.705171 7.567393
48 16 2  0.5564 6.616437 7.544588 7.727883
49 17 1 -1.1128 11.559974 7.972536 2.498731
50 17 2  0.5564 12.042039 7.845479 1.687402
51 17 2  0.5564 10.763219 7.417357 2.513215
52 18 1 -1.1128 11.443630 0.428647 7.743689
53 18 2  0.5564 11.966826 1.223998 7.722055
54 18 2  0.5564 11.031022 0.267556 6.879366
55 19 1 -1.1128 2.076184 4.645840 2.468836
56 19 2  0.5564 1.371353 4.020950 2.608519
57 19 2  0.5564 2.811170 4.230143 1.989002
58 20 1 -1.1128 7.799203 3.276116 2.049889
59 20 2  0.5564 8.444610 2.822417 2.583174
60 20 2  0.5564 6.905488 2.948558 2.242839
61 21 1 -1.1128 8.615190 6.611409 3.310840
62 21 2  0.5564 7.875764 7.196497 3.177782
63 21 2  0.5564 8.845574 6.560837 4.252974
64 22 1 -1.1128 1.336870 8.553301 1.097884
65 22 2  0.5564 0.942628 7.707600 1.288008
66 22 2  0.5564 1.456895 8.666841 0.140830
67 23 1 -1.1128 2.413589 4.268826 12.133271
68 23 2  0.5564 2.607109 3.688304 11.403662
69 23 2  0.5564 1.593570 4.762552 11.968786
70 24 1 -1.1128 7.182014 5.612265 7.929800
71 24 2  0.5564 7.195399 4.719077 7.599920
72 24 2  0.5564 6.269215 5.905490 8.084935
73 25 1 -1.1128 7.493119 9.955156 7.063842
74 25 2  0.5564 6.801604 9.300552 7.073156
75 25 2  0.5564 7.398686 10.562553 7.815774
76 26 1 -1.1128 2.729825 8.534120 1.892941
77 26 2  0.5564 3.395664 9.090475 1.500624
78 26 2  0.5564 2.931943 8.366934 2.828060
79 27 1 -1.1128 8.250716 0.520700 3.652943
80 27 2  0.5564 8.490274 0.008230 4.418953
81 27 2  0.5564 9.023837 0.665182 3.083154
82 28 1 -1.1128 8.077946 9.089363 3.980858
83 28 2  0.5564 8.429348 9.958030 4.150326
84 28 2  0.5564 8.251455 8.498220 4.731655
85 29 1 -1.1128 5.704724 3.973409 1.421747
86 29 2  0.5564 4.755241 4.007094 1.357469
87 29 2  0.5564 6.089665 3.611581 0.606792
88 30 1 -1.1128 11.120166 7.137692 1.040286
89 30 2  0.5564 10.242732 7.463605 0.865141
90 30 2  0.5564 11.463075 6.650557 0.273237
91 31 1 -1.1128 12.050740 6.557365 5.809635
92 31 2  0.5564 11.381030 6.962980 6.351622
93 31 2  0.5564 11.926538 6.796944 4.876668
94 32 1 -1.1128 9.055432 3.937067 4.979814
95 32 2  0.5564 8.832485 3.571734 4.129161
96 32 2  0.5564 9.422013 3.250658 5.560943
97 33 1 -1.1128 4.396859 0.760392 8.249451
98 33 2  0.5564 3.812611 0.139586 7.825140
99 33 2  0.5564 4.031362 1.044906 9.103099
100 34 1 -1.1128 9.289690 7.133450 9.947227
101 34 2  0.5564 9.644210 6.328502 9.582316
102 34 2  0.5564 10.005921 7.719028 10.242798
103 35 1 -1.1128 3.088331 2.814201 8.965991
104 35 2  0.5564 2.633694 3.644072 8.859197
105 35 2  0.5564 3.088749 2.315216 8.132766
106 36 1 -1.1128 9.683804 11.669402 8.925235
107 36 2  0.5564 10.284216 12.121774 9.509744
108 36 2  0.5564 9.757555 12.019209 8.022214
109 37 1 -1.1128 3.335938 11.057062 0.674509
110 37 2  0.5564 2.428051 11.258872 0.470062
111 37 2  0.5564 3.560914 11.362874 1.568442
112 38 1 -1.1128 5.293300 2.351409 10.012645
113 38 2  0.5564 4.518237 2.585115 10.514088
114 38 2  0.5564 6.055426 2.224403 10.601104
115 39 1 -1.1128 4.472365 2.865971 5.297084
116 39 2  0.5564 3.701516 2.540546 4.842470
117 39 2  0.5564 4.332501 2.854358 6.258102
118 40 1 -1.1128 7.784878 11.437223 5.923187
119 40 2  0.5564 7.086402 12.054960 5.730010
120 40 2  0.5564 7.729000 11.135612 6.844686
121 41 1 -1.1128 2.734851 0.801029 4.080992
122 41 2  0.5564 3.655685 0.565145 4.137632
123 41 2  0.5564 2.261718 0.525735 4.883244
124 42 1 -1.1128 5.710014 5.567657 0.537561
125 42 2  0.5564 5.422072 5.162161 1.349625
126 42 2  0.5564 4.946720 5.836742 0.000693
127 43 1 -1.1128 2.891408 2.890002 0.449509
128 43 2  0.5564 2.995008 3.809030 0.222704
129 43 2  0.5564 2.100106 2.520399 0.024674
130 44 1 -1.1128 5.555139 6.204728 9.909944
131 44 2  0.5564 5.782688 5.442755 10.433779
132 44 2  0.5564 4.612464 6.417133 10.007401
133 45 1 -1.1128 10.547281 5.771817 8.190871
134 45 2  0.5564 10.168098 5.852060 7.321063
135 45 2  0.5564 11.098683 6.544617 8.395778
136 46 1 -1.1128 0.542774 10.383270 1.745416
137 46 2  0.5564 0.760366 11.307987 1.679554
138 46 2  0.5564 0.108764 10.194009 2.593394
139 47 1 -1.1128 11.356857 9.978487 1.109174
140 47 2  0.5564 11.146454 9.050034 1.086997
141 47 2  0.5564 11.091294 10.368761 1.957946
142 48 1 -1.1128 8.236663 4.704366 8.182195
143 48 2  0.5564 8.073554 3.812477 8.473251
144 48 2  0.5564 8.044140 5.336559 8.893895
145 49 1 -1.1128 2.325813 11.476667 11.681905
146 49 2  0.5564 1.919816 10.615301 11.682909
147 49 2  0.5564 1.734863 12.133331 12.085416
148 50 1 -1.1128 11.567036 4.814443 5.448134
149 50 2  0.5564 10.742981 4.395890 5.218934
150 50 2  0.5564 11.494721 5.264359 6.305803
151 51 1 -1.1128 3.974565 9.403816 3.957653
152 51 2  0.5564 3.926477 9.857918 4.793275
153 51 2  0.5564 3.907349 8.443519 4.086350
154 52 1 -1.1128 9.635826 1.569434 7.408866
155 52 2  0.5564 10.104112 0.741165 7.370617
156 52 2  0.5564 9.698428 2.036783 6.559798
157 53 1 -1.1128 8.689273 11.790397 4.687389
158 53 2  0.5564 8.357591 10.907573 4.819274
159 53 2  0.5564 8.689999 12.283589 5.524056
160 54 1 -1.1128 0.996035 8.700090 10.019911
161 54 2  0.5564 0.695632 7.798876 10.085910
162 54 2  0.5564 1.416166 8.857928 9.158617
163 55 1 -1.1128 7.675554 1.793033 5.732215
164 55 2  0.5564 8.571188 1.473302 5.781163
165 55 2  0.5564 7.499939 2.185172 4.861217
166 56 1 -1.1128 3.191956 10.154404 7.315148
167 56 2  0.5564 3.792921 10.569535 6.704171
168 56 2  0.5564 2.276511 10.418148 7.126332
169 57 1 -1.1128 9.061613 10.545495 2.320888
170 57 2  0.5564 9.723951 11.226500 2.386659
171 57 2  0.5564 9.113006 9.944333 3.081948
172 58 1 -1.1128 4.363724 5.820289 5.836248
173 58 2  0.5564 4.282467 5.854562 4.888087
174 58 2  0.5564 5.113598 5.259855 6.094810
175 59 1 -1.1128 0.825606 5.516059 3.196341
176 59 2  0.5564 0.424673 6.072229 3.857183
177 59 2  0.5564 0.350688 4.671767 3.126520
178 60 1 -1.1128 5.263685 4.709051 7.300100
179 60 2  0.5564 4.601585 4.166479 6.882937
180 60 2  0.5564 6.154476 4.390629 7.080215
181 61 1 -1.1128 2.028911 4.593897 1.305003
182 61 2  0.5564 1.175945 4.183286 1.408118
183 61 2  0.5564 2.044452 5.154766 0.512263
184 62 1 -1.1128 2.505228 5.952725 2.633336
185 62 2  0.5564 3.159758 5.848624 1.949567
186 62 2  0.5564 1.964447 6.742972 2.471111
187 63 1 -1.1128 10.992624 10.367294 3.962267
188 63 2  0.5564 10.337863 11.055996 4.023606
189 63 2  0.5564 11.563994 10.368221 4.747625
190 64 1 -1.1128 6.693716 1.374495 9.793443
191 64 2  0.5564 6.876267 1.019055 10.657805
192 64 2  0.5564 5.736197 1.415589 9.636221

 Bonds

1 1 1 2
2 1 1 3
3 1 4 5
4 1 4 6
5 1 7 8
6 1 7 9
7 1 10 11
8 1 10 12
9 1 13 14
10 1 13 15
11 1 16 17
12 1 16 18
13 1 19 20
14 1 19 21
15 1 22 23
16 1 22 24
17 1 25 26
18 1 25 27
19 1 28 29
20 1 28 30
21 1 31 32
22 1 31 33
23 1 34 35
24 1 34 36
25 1 37 38
26 1 37 39
27 1 40 41
28 1 40 42
29 1 43 44
30 1 43 45
31 1 46 47
32 1 46 48
33 1 49 50
34 1 49 51
35 1 52 53
36 1 52 54
37 1 55 56
38 1 55 57
39 1 58 59
40 1 58 60
41 1 61 62
42 1 61 63
43 1 64 65
44 1 64 66
45 1 67 68
46 1 67 69
47 1 70 71
48 1 70 72
49 1 73 74
50 1 73 75
51 1 76 77
52 1 76 78
53 1 79 80
54 1 79 81
55 1 82 83
56 1 82 84
57 1 85 86
58 1 85 87
59 1 88 89
60 1 88 90
61 1 91 92
62 1 91 93
63 1 94 95
64 1 94 96
65 1 97 98
66 1 97 99
67 1 100 101
68 1 100 102
69 1 103 104
70 1 103 105
71 1 106 107
72 1 106 108
73 1 109 110
74 1 109 111
75 1 112 113
76 1 112 114
77 1 115 116
78 1 115 117
79 1 118 119
80 1 118 120
81 1 121 122
82 1 121 123
83 1 124 125
84 1 124 126
85 1 127 128
86 1 127 129
87 1 130 131
88 1 130 132
89 1 133 134
90 1 133 135
91 1 136 137
92 1 136 138
93 1 139 140
94 1 139 141
95 1 142 143
96 1 142 144
97 1 145 146
98 1 145 147
99 1 148 149
100 1 148 150
101 1 151 152
102 1 151 153
103 1 154 155
104 1 154 156
105 1 157 158
106 1 157 159
107 1 160 161
108 1 160 162
109 1 163 164
110 1 163 165
111 1 166 167
112 1 166 168
113 1 169 170
114 1 169 171
115 1 172 173
116 1 172 174
117 1 175 176
118 1 175 177
119 1 178 179
120 1 178 180
121 1 181 182
122 1 181 183
123 1 184 185
124 1 184 186
125 1 187 188
126 1 187 189
127 1 190 191
128 1 190 192

 Angles

1 1 2 1 3
2 1 5 4 6
3 1 8 7 9
4 1 11 10 12
5 1 14 13 15
6 1 17 16 18
7 1 20 19 21
8 1 23 22 24
9 1 26 25 27
10 1 29 28 30
11 1 32 31 33
12 1 35 34 36
13 1 38 37 39
14 1 41 40 42
15 1 44 43 45
16 1 47 46 48
17 1 50 49 51
18 1 53 52 54
19 1 56 55 57
20 1 59 58 60
21 1 62 61 63
22 1 65 64 66
23 1 68 67 69
24 1 71 70 72
25 1 74 73 75
26 1 77 76 78
27 1 80 79 81
28 1 83 82 84
29 1 86 85 87
30 1 89 88 90
31 1 92 91 93
32 1 95 94 96
33 1 98 97 99
34 1 101 100 102
35 1 104 103 105
36 1 107 106 108
37 1 110 109 111
38 1 113 112 114
39 1 116 115 117
40 1 119 118 120
41 1 122 121 123
42 1 125 124 126
43 1 128 127 129
44 1 131 130 132
45 1 134 133 135
46 1 137 136 138
47 1 140 139 141
48 1 143 142 144
49 1 146 145 147
50 1 149 148 150
51 1 152 151 153
52 1 155 154 156
53 1 158 157 159
54 1 161 160 162
55 1 164 163 165
56 1 167 166 168
57 1 170 169 171
58 1 173 172 174
59 1 176 175 177
60 1 179 178 180
61 1 182 181 183
62 1 185 184 186
63 1 188 187 189
64 1 191 190 192

