194
# CELL(abcABC):   23.47040    23.47040    23.47040    90.00000    90.00000    90.00000  Step:         100  Bead:       0 x_centroid{angstrom}  cell{atomic_unit}
       O  3.07669e-01  2.47443e+00  1.09912e+01
       H -2.97715e-01  1.77407e+00  1.11811e+01
       H  5.97266e-01  2.33585e+00  1.00711e+01
       O  1.12234e+01  1.00182e+01  6.77225e+00
       H  1.15932e+01  9.20651e+00  6.40759e+00
       H  1.14291e+01  1.06838e+01  6.12738e+00
       O  5.84449e+00  8.53409e+00  5.84858e+00
       H  5.15535e+00  9.00981e+00  5.36028e+00
       H  5.52131e+00  7.62263e+00  5.79757e+00
       O  5.60449e-01  2.39720e+00  1.94615e+00
       H  1.17862e+00  2.70493e+00  2.61918e+00
       H  4.40930e-01  3.16421e+00  1.39975e+00
       O  1.75172e+00  4.58702e+00  7.09044e+00
       H  1.64014e+00  5.50657e+00  7.29730e+00
       H  9.99211e-01  4.34334e+00  6.53920e+00
       O  7.20969e+00  5.98532e+00  1.16037e+01
       H  7.45938e+00  5.11089e+00  1.18919e+01
       H  7.95759e+00  6.31586e+00  1.10904e+01
       O  2.05031e+00  4.54255e-01  8.36904e-01
       H  1.36964e+00  1.06351e+00  1.17476e+00
       H  2.81667e+00  1.02740e+00  8.45150e-01
       O  9.18395e+00  2.45740e+00  8.13018e+00
       H  8.56865e+00  2.51377e+00  7.38598e+00
       H  9.10311e+00  1.56291e+00  8.46240e+00
       O  6.31293e+00  4.13142e+00  4.18651e+00
       H  6.95922e+00  4.72013e+00  3.78440e+00
       H  5.74752e+00  4.74766e+00  4.65329e+00
       O  1.20812e+01  5.14980e+00  1.08260e+01
       H  1.21471e+01  4.18942e+00  1.08885e+01
       H  1.15659e+01  5.44366e+00  1.15840e+01
       O  1.21612e+01  7.39074e+00  9.35545e+00
       H  1.13673e+01  7.82956e+00  9.66079e+00
       H  1.21444e+01  6.55673e+00  9.85222e+00
       O  8.88653e+00  1.00090e+01  1.10740e+01
       H  9.80035e+00  1.02795e+01  1.10173e+01
       H  8.65029e+00  1.01171e+01  1.20006e+01
       O  8.63703e+00  7.32241e+00  1.15081e+00
       H  8.08575e+00  6.91185e+00  4.79066e-01
       H  8.44994e+00  6.82389e+00  1.96496e+00
       O  4.66654e+00  1.35540e+00  2.07441e+00
       H  4.89370e+00  4.41117e-01  1.91901e+00
       H  4.61583e+00  1.44364e+00  3.02885e+00
       O  1.13418e+01  1.07278e+01  9.48349e+00
       H  1.21708e+01  1.11405e+01  9.71777e+00
       H  1.14553e+01  1.04345e+01  8.56886e+00
       O  7.20400e+00  7.77098e+00  8.63454e+00
       H  7.10990e+00  7.54034e+00  7.72267e+00
       H  6.35086e+00  7.58319e+00  9.04501e+00
       O  1.14785e+01  8.14838e+00  3.00004e+00
       H  1.23509e+01  8.40409e+00  2.72737e+00
       H  1.12407e+01  7.44184e+00  2.39655e+00
       O  1.31280e+01  1.91480e-01  7.04249e+00
       H  1.33936e+01  9.55115e-01  7.56871e+00
       H  1.22084e+01  3.66224e-01  6.80882e+00
       O  2.43346e+00  3.39799e+00  3.65939e+00
       H  1.87688e+00  4.06729e+00  4.07053e+00
       H  3.07591e+00  3.95145e+00  3.21437e+00
       O  8.73480e+00  3.20088e+00  1.68498e+00
       H  8.85555e+00  2.24738e+00  1.78504e+00
       H  7.79220e+00  3.32639e+00  1.54656e+00
       O  8.14703e+00  6.02288e+00  3.44678e+00
       H  8.21680e+00  6.84853e+00  3.94751e+00
       H  8.80777e+00  5.41409e+00  3.79984e+00
       O  7.49246e-01  8.45678e+00  1.33681e-01
       H  1.53165e+00  8.47498e+00  6.90438e-01
       H  1.09602e+00  8.58823e+00 -7.57121e-01
       O  2.51105e+00  5.29489e+00  1.03014e+01
       H  2.74911e+00  4.46959e+00  1.07298e+01
       H  1.56461e+00  5.33926e+00  1.04276e+01
       O  6.04931e+00  4.54223e+00  8.54530e+00
       H  5.93208e+00  3.97089e+00  9.31991e+00
       H  5.68272e+00  5.38901e+00  8.82391e+00
       O  7.31154e+00  1.02841e+01  7.44639e+00
       H  6.71322e+00  9.80229e+00  6.86632e+00
       H  7.44800e+00  9.62741e+00  8.13555e+00
       O  2.87604e+00  8.90835e+00  1.98476e+00
       H  3.61088e+00  9.40346e+00  1.61618e+00
       H  2.25619e+00  9.61026e+00  2.25234e+00
       O  9.18239e+00  5.23906e-01  2.17921e+00
       H  8.69431e+00 -2.90980e-01  2.15571e+00
       H  9.96725e+00  3.11225e-01  2.67416e+00
       O  8.20620e+00  8.54124e+00  4.49693e+00
       H  8.24582e+00  9.31358e+00  3.94719e+00
       H  7.34617e+00  8.56948e+00  4.93765e+00
       O  6.06736e+00  3.56666e+00  9.48656e-01
       H  5.62817e+00  2.87860e+00  1.46151e+00
       H  5.93954e+00  3.29859e+00  3.34322e-02
       O  1.12758e+01  6.46182e+00  7.18941e-01
       H  1.03393e+01  6.69866e+00  7.02376e-01
       H  1.17508e+01  7.22730e+00  3.75508e-01
       O  1.21541e+01  7.70057e+00  5.61653e+00
       H  1.15935e+01  7.10672e+00  6.13287e+00
       H  1.17218e+01  7.81985e+00  4.76036e+00
       O  9.59784e+00  3.83397e+00  4.18808e+00
       H  9.39275e+00  3.58801e+00  3.27030e+00
       H  8.97096e+00  3.32149e+00  4.71095e+00
       O  3.52426e+00  3.81309e-01  8.91877e+00
       H  2.91182e+00  1.02858e-02  9.57195e+00
       H  4.42088e+00  2.86656e-01  9.24365e+00
       O  9.39787e+00  7.39781e+00  1.04689e+01
       H  8.93160e+00  7.19960e+00  9.65408e+00
       H  9.14147e+00  8.30796e+00  1.06786e+01
       O  1.50670e+00  2.27121e+00  8.60698e+00
       H  1.66598e+00  3.08436e+00  8.11918e+00
       H  2.34880e+00  1.80565e+00  8.68932e+00
       O  9.08213e+00  1.21544e+01  8.65449e+00
       H  9.77804e+00  1.16614e+01  9.10686e+00
       H  8.51553e+00  1.14864e+01  8.25766e+00
       O  4.31520e+00  1.11310e+01  1.04104e+00
       H  4.58966e+00  1.12126e+01  1.37030e-01
       H  3.47556e+00  1.15855e+01  1.09631e+00
       O  5.60446e+00  3.00696e+00  1.07300e+01
       H  4.66585e+00  2.93380e+00  1.09378e+01
       H  5.86046e+00  2.15044e+00  1.03611e+01
       O  4.03298e+00  1.57822e+00  4.87082e+00
       H  3.38440e+00  2.14044e+00  4.42168e+00
       H  4.33036e+00  2.19695e+00  5.54799e+00
       O  6.18361e+00  1.28288e+01  6.78366e+00
       H  5.40529e+00  1.28056e+01  6.24046e+00
       H  6.55208e+00  1.19409e+01  6.78396e+00
       O  2.26579e+00 -5.18705e-01  4.93536e+00
       H  2.85636e+00  2.41664e-01  4.90536e+00
       H  1.64133e+00 -3.13629e-01  5.64738e+00
       O  4.33851e+00  6.10816e+00  4.53767e-01
       H  5.13384e+00  5.58909e+00  5.58627e-01
       H  4.60310e+00  6.93837e+00  7.46629e-02
       O  2.96850e+00  2.98354e+00 -7.18369e-01
       H  2.78519e+00  3.52032e+00  5.67244e-02
       H  2.09211e+00  2.68614e+00 -9.87128e-01
       O  5.01922e+00  6.66317e+00  9.91270e+00
       H  5.62387e+00  6.31462e+00  1.05764e+01
       H  4.15548e+00  6.26938e+00  1.00786e+01
       O  1.09628e+01  5.98440e+00  7.37993e+00
       H  1.01510e+01  5.69794e+00  7.82064e+00
       H  1.14247e+01  6.49150e+00  8.06426e+00
       O  1.22806e+00  1.08974e+01  2.54600e+00
       H  1.40482e+00  1.16399e+01  1.96094e+00
       H  1.34762e+00  1.12565e+01  3.43032e+00
       O  1.12535e+01  1.04951e+01  7.00066e-01
       H  1.19209e+01  9.83996e+00  5.00795e-01
       H  1.14739e+01  1.08123e+01  1.57745e+00
       O  8.76061e+00  5.06178e+00  8.71028e+00
       H  9.04843e+00  4.14165e+00  8.65276e+00
       H  7.80836e+00  4.97923e+00  8.61272e+00
       O  1.49364e+00  1.17141e+01  1.05648e+01
       H  1.58557e+00  1.07529e+01  1.05151e+01
       H  1.47403e+00  1.19538e+01  1.14900e+01
       O  1.17736e+01  3.87901e+00  5.80908e+00
       H  1.10327e+01  3.73226e+00  5.20634e+00
       H  1.14202e+01  4.50455e+00  6.45390e+00
       O  3.72292e+00  9.66460e+00  4.61859e+00
       H  3.16766e+00  1.04501e+01  4.72122e+00
       H  3.48515e+00  9.27689e+00  3.77542e+00
       O  1.05361e+01  5.79989e-01  6.43189e+00
       H  1.01702e+01  1.88476e-01  7.23213e+00
       H  1.04060e+01  1.51944e+00  6.56161e+00
       O  8.75359e+00  1.13505e+01  5.15000e+00
       H  8.67132e+00  1.06758e+01  5.82004e+00
       H  9.29445e+00  1.20479e+01  5.53811e+00
       O  1.86186e+00  9.05911e+00  1.00852e+01
       H  1.21467e+00  8.48845e+00  9.65112e+00
       H  2.47881e+00  9.30322e+00  9.38351e+00
       O  7.74961e+00  2.48955e+00  5.78428e+00
       H  7.24304e+00  1.68916e+00  5.95471e+00
       H  7.13969e+00  3.05953e+00  5.28991e+00
       O  3.35544e+00  1.01284e+01  8.02032e+00
       H  3.30725e+00  1.10837e+01  8.05877e+00
       H  3.36982e+00  9.88695e+00  7.10113e+00
       O  8.62210e+00  1.00684e+01  1.42030e+00
       H  9.55857e+00  1.02408e+01  1.24547e+00
       H  8.55425e+00  9.10585e+00  1.41327e+00
       O  4.79573e+00  6.05568e+00  5.45941e+00
       H  4.30120e+00  6.08755e+00  4.62578e+00
       H  4.51127e+00  5.25275e+00  5.91517e+00
       O  8.48393e-01  5.61204e+00  4.15682e+00
       H  6.73196e-01  6.38186e+00  4.70409e+00
       H  1.39081e-01  5.00902e+00  4.37429e+00
       O  4.29932e+00  3.66251e+00  6.67913e+00
       H  3.41346e+00  3.95826e+00  6.92196e+00
       H  4.91169e+00  3.91530e+00  7.39084e+00
       O  1.54649e+00  4.98715e+00  8.11637e-01
       H  7.08410e-01  5.42952e+00  7.40051e-01
       H  2.18916e+00  5.57475e+00  4.15277e-01
       O  3.55196e+00  5.90821e+00  3.04488e+00
       H  3.83706e+00  6.06185e+00  2.13648e+00
       H  2.60049e+00  6.00602e+00  3.03298e+00
       O  1.08401e+01  1.08346e+01  3.56190e+00
       H  1.00462e+01  1.09579e+01  4.09859e+00
       H  1.09186e+01  9.88689e+00  3.43661e+00
       O  6.22721e+00  6.12341e-01  9.51369e+00
       H  7.07610e+00  2.53983e-01  9.75303e+00
       H  6.24319e+00  6.47436e-01  8.54435e+00
       L  0.00000e+00  0.00000e+00  0.00000e+00
       L  0.00000e+00  0.00000e+00  0.00000e+00

